 running on    8 total cores
 distrk:  each k-point on    8 cores,    1 groups
 distr:  one band on    2 cores,    4 groups
 using from now: INCAR     
 vasp.5.4.4.18Apr17-6-g9f103f2a35 (build Feb 26 2018 15:04:24) complex          
  
 POSCAR found type information on POSCAR  B  N 
 POSCAR found :  2 types and       2 ions
 scaLAPACK will be used

 ----------------------------------------------------------------------------- 
|                                                                             |
|  ADVICE TO THIS USER RUNNING 'VASP/VAMP'   (HEAR YOUR MASTER'S VOICE ...):  |
|                                                                             |
|      You have a (more or less) 'small supercell' and for smaller cells      |
|      it is recommended  to use the reciprocal-space projection scheme!      |
|      The real space optimization is not  efficient for small cells and it   |
|      is also less accurate ...                                              |
|      Therefore set LREAL=.FALSE. in the  INCAR file                         |
|                                                                             |
 ----------------------------------------------------------------------------- 

 LDA part: xc-table for Pade appr. of Perdew
 POSCAR, INCAR and KPOINTS ok, starting setup
 FFT: planning ...
 WAVECAR not read
 WARNING: chargedensity file is incomplete
 WARNING: random wavefunctions but no delay for mixing, default for NELMDL
 entering main loop
       N       E                     dE             d eps       ncg     rms          rms(c)
DAV:   1     0.631344519458E+02    0.63134E+02   -0.33296E+03   872   0.710E+02
DAV:   2    -0.143617643135E+02   -0.77496E+02   -0.63363E+02  1248   0.136E+02
DAV:   3    -0.194477939049E+02   -0.50860E+01   -0.50860E+01  1160   0.581E+01
DAV:   4    -0.194841428639E+02   -0.36349E-01   -0.36349E-01  1424   0.495E+00
DAV:   5    -0.194841825899E+02   -0.39726E-04   -0.39726E-04  1232   0.122E-01    0.721E+00
RMM:   6    -0.178646880957E+02    0.16195E+01   -0.31971E+00   832   0.142E+01    0.264E+00
RMM:   7    -0.176683790977E+02    0.19631E+00   -0.30467E-01   832   0.464E+00    0.151E+00
RMM:   8    -0.175833091516E+02    0.85070E-01   -0.17253E-01   832   0.336E+00    0.275E-01
RMM:   9    -0.175763202029E+02    0.69889E-02   -0.23489E-02   832   0.116E+00    0.269E-01
RMM:  10    -0.175732361888E+02    0.30840E-02   -0.66972E-03   832   0.704E-01    0.653E-02
RMM:  11    -0.175728413070E+02    0.39488E-03   -0.28137E-03   832   0.386E-01    0.125E-01
RMM:  12    -0.175729471398E+02   -0.10583E-03   -0.33482E-03   832   0.445E-01    0.775E-02
RMM:  13    -0.175740852450E+02   -0.11381E-02   -0.51370E-04   832   0.169E-01    0.905E-03
RMM:  14    -0.175743874850E+02   -0.30224E-03   -0.14347E-04   714   0.901E-02    0.219E-02
RMM:  15    -0.175746129147E+02   -0.22543E-03   -0.66618E-05   652   0.695E-02    0.156E-03
RMM:  16    -0.175746322615E+02   -0.19347E-04   -0.46805E-06   585   0.225E-02
   1 F= -.17728381E+02 E0= -.17728381E+02  d E =-.177284E+02
 BRION: g(F)=  0.380E-03 g(S)=  0.000E+00
 bond charge predicted
       N       E                     dE             d eps       ncg     rms          rms(c)
DAV:   1    -0.175743360988E+02    0.27682E-03   -0.57225E-02  1384   0.229E+00    0.496E-02
RMM:   2    -0.175743247421E+02    0.11357E-04   -0.54544E-04   797   0.254E-01    0.313E-02
RMM:   3    -0.175742992732E+02    0.25469E-04   -0.10211E-04   624   0.863E-02
   2 F= -.17728048E+02 E0= -.17728048E+02  d E =0.332964E-03
 BRION: g(F)=  0.296E-02 g(S)=  0.000E+00 retain N=  1 mean eig= 0.26
 eig:   0.263
 bond charge predicted
       N       E                     dE             d eps       ncg     rms          rms(c)
DAV:   1    -0.175747152230E+02   -0.39048E-03   -0.30953E-02   968   0.169E+00    0.363E-02
RMM:   2    -0.175747176976E+02   -0.24746E-05   -0.38633E-04   774   0.212E-01
   3 F= -.17728467E+02 E0= -.17728467E+02  d E =-.418398E-03
 BRION: g(F)=  0.943E-05 g(S)=  0.000E+00 retain N=  1 mean eig= 0.28
 eig:   0.279
 reached required accuracy - stopping structural energy minimisation
