 running on    8 total cores
 distrk:  each k-point on    8 cores,    1 groups
 distr:  one band on    2 cores,    4 groups
 using from now: INCAR     
 vasp.5.4.4.18Apr17-6-g9f103f2a35 (build Feb 26 2018 15:04:24) complex          
  
 POSCAR found type information on POSCAR  Si
 POSCAR found :  1 types and       8 ions
 scaLAPACK will be used
 LDA part: xc-table for Pade appr. of Perdew

 ----------------------------------------------------------------------------- 
|                                                                             |
|           W    W    AA    RRRRR   N    N  II  N    N   GGGG   !!!           |
|           W    W   A  A   R    R  NN   N  II  NN   N  G    G  !!!           |
|           W    W  A    A  R    R  N N  N  II  N N  N  G       !!!           |
|           W WW W  AAAAAA  RRRRR   N  N N  II  N  N N  G  GGG   !            |
|           WW  WW  A    A  R   R   N   NN  II  N   NN  G    G                |
|           W    W  A    A  R    R  N    N  II  N    N   GGGG   !!!           |
|                                                                             |
|      The number of bands has been changed from the values supplied          |
|      in the INCAR file. This is a result of running the parallel version.   |
|      The orbitals not found in the WAVECAR file will be initialized with    |
|      random numbers, which is usually adequate. For correlated              |
|      calculations, however, you should redo the groundstate calculation.    |
|      I found NBANDS    =       26  now  NBANDS  =      28                   |
|                                                                             |
 ----------------------------------------------------------------------------- 

 WARNING: stress and forces are not correct
 POSCAR, INCAR and KPOINTS ok, starting setup
 FFT: planning ...
 WAVECAR not read
 charge-density read from file: unknown                                 
 entering main loop
       N       E                     dE             d eps       ncg     rms          rms(c)
DAV:   1     0.637932029500E+02    0.63793E+02   -0.11899E+04 10976   0.940E+02
DAV:   2    -0.377656506995E+02   -0.10156E+03   -0.93702E+02 14112   0.141E+02
DAV:   3    -0.427872241592E+02   -0.50216E+01   -0.49452E+01 14060   0.280E+01
DAV:   4    -0.428601519009E+02   -0.72928E-01   -0.72805E-01 13808   0.438E+00
DAV:   5    -0.428615271771E+02   -0.13753E-02   -0.13748E-02 13848   0.575E-01
DAV:   6    -0.428615619681E+02   -0.34791E-04   -0.34786E-04 13660   0.967E-02
   1 F= -.45326444E+02 E0= -.45326444E+02  d E =-.786654E-10
