 running on    8 total cores
 distrk:  each k-point on    8 cores,    1 groups
 distr:  one band on    2 cores,    4 groups
 using from now: INCAR     
 vasp.5.4.4.18Apr17-6-g9f103f2a35 (build Feb 26 2018 15:04:24) complex          
  
 POSCAR found type information on POSCAR  Si
 POSCAR found :  1 types and       8 ions
 scaLAPACK will be used

 ----------------------------------------------------------------------------- 
|                                                                             |
|  ADVICE TO THIS USER RUNNING 'VASP/VAMP'   (HEAR YOUR MASTER'S VOICE ...):  |
|                                                                             |
|      You have a (more or less) 'small supercell' and for smaller cells      |
|      it is recommended  to use the reciprocal-space projection scheme!      |
|      The real space optimization is not  efficient for small cells and it   |
|      is also less accurate ...                                              |
|      Therefore set LREAL=.FALSE. in the  INCAR file                         |
|                                                                             |
 ----------------------------------------------------------------------------- 

 LDA part: xc-table for Pade appr. of Perdew
 POSCAR, INCAR and KPOINTS ok, starting setup
 FFT: planning ...
 WAVECAR not read
 WARNING: chargedensity file is incomplete
 entering main loop
       N       E                     dE             d eps       ncg     rms          rms(c)
DAV:   1     0.699971183253E+02    0.69997E+02   -0.12078E+04  1728   0.110E+03
DAV:   2    -0.385147961237E+02   -0.10851E+03   -0.10047E+03  2272   0.154E+02
DAV:   3    -0.436066320779E+02   -0.50918E+01   -0.50128E+01  2288   0.321E+01
DAV:   4    -0.436988795152E+02   -0.92247E-01   -0.92126E-01  2152   0.544E+00
DAV:   5    -0.437012289362E+02   -0.23494E-02   -0.23485E-02  2296   0.787E-01    0.595E+00
RMM:   6    -0.432181787805E+02    0.48305E+00   -0.26380E-01  1728   0.192E+00    0.354E+00
RMM:   7    -0.430011178712E+02    0.21706E+00   -0.54535E-01  1728   0.287E+00    0.317E-01
RMM:   8    -0.430050129338E+02   -0.38951E-02   -0.14591E-02  1733   0.551E-01    0.801E-02
RMM:   9    -0.430057125529E+02   -0.69962E-03   -0.15053E-03  1734   0.188E-01    0.293E-02
RMM:  10    -0.430058022548E+02   -0.89702E-04   -0.19433E-04  1192   0.710E-02
   1 F= -.45474297E+02 E0= -.45474254E+02  d E =-.454743E+02
 curvature:   0.00 expect dE= 0.000E+00 dE for cont linesearch  0.000E+00
 trial: gam= 0.00000 g(F)=  0.648E+00 g(S)=  0.000E+00 ort = 0.000E+00 (trialstep = 0.100E+01)
 search vector abs. value=  0.648E+00
 bond charge predicted
       N       E                     dE             d eps       ncg     rms          rms(c)
DAV:   1    -0.433033012621E+02   -0.29759E+00   -0.79044E+00  1880   0.132E+01    0.592E-01
RMM:   2    -0.433531706520E+02   -0.49869E-01   -0.52795E-01  1728   0.365E+00    0.421E-01
RMM:   3    -0.433517540148E+02    0.14166E-02   -0.22198E-02  1759   0.843E-01    0.229E-01
RMM:   4    -0.433513793850E+02    0.37463E-03   -0.54576E-03  1742   0.287E-01    0.458E-02
RMM:   5    -0.433513178103E+02    0.61575E-04   -0.21230E-04  1182   0.752E-02
   2 F= -.45814070E+02 E0= -.45814070E+02  d E =-.339773E+00
 trial-energy change:   -0.339773  1 .order   -0.334231   -0.648454   -0.020007
 step:   1.0302(harm=  1.0318)  dis= 0.05510  next Energy=   -45.814372 (dE=-0.340E+00)
 bond charge predicted
       N       E                     dE             d eps       ncg     rms          rms(c)
DAV:   1    -0.433515947478E+02   -0.21536E-03   -0.75312E-03  2248   0.407E-01    0.188E-02
RMM:   2    -0.433516502668E+02   -0.55519E-04   -0.57330E-04  1500   0.118E-01
   3 F= -.45814397E+02 E0= -.45814397E+02  d E =-.340100E+00
 curvature:  -0.51 expect dE=-0.132E-01 dE for cont linesearch -0.195E-06
 trial: gam= 0.04025 g(F)=  0.256E-01 g(S)=  0.000E+00 ort =-0.496E-03 (trialstep = 0.101E+01)
 search vector abs. value=  0.266E-01
 bond charge predicted
       N       E                     dE             d eps       ncg     rms          rms(c)
DAV:   1    -0.433648554384E+02   -0.13261E-01   -0.28893E-01  1864   0.256E+00    0.125E-01
RMM:   2    -0.433666248285E+02   -0.17694E-02   -0.18928E-02  1728   0.704E-01    0.852E-02
RMM:   3    -0.433665925122E+02    0.32316E-04   -0.85262E-04  1734   0.165E-01
   4 F= -.45829186E+02 E0= -.45829186E+02  d E =-.147885E-01
 trial-energy change:   -0.014789  1 .order   -0.014853   -0.025742   -0.003964
 step:   1.1892(harm=  1.1892)  dis= 0.02164  next Energy=   -45.829611 (dE=-0.152E-01)
 bond charge predicted
       N       E                     dE             d eps       ncg     rms          rms(c)
DAV:   1    -0.433668947776E+02   -0.26995E-03   -0.86729E-03  2288   0.446E-01    0.279E-02
RMM:   2    -0.433669529212E+02   -0.58144E-04   -0.56351E-04  1491   0.122E-01
   5 F= -.45829549E+02 E0= -.45829549E+02  d E =-.151514E-01
 curvature:  -0.62 expect dE=-0.280E-02 dE for cont linesearch -0.496E-06
 trial: gam= 0.17207 g(F)=  0.453E-02 g(S)=  0.000E+00 ort =-0.146E-03 (trialstep = 0.104E+01)
 search vector abs. value=  0.527E-02
 bond charge predicted
       N       E                     dE             d eps       ncg     rms          rms(c)
DAV:   1    -0.433709502978E+02   -0.40555E-02   -0.38644E-02  1728   0.986E-01    0.627E-02
RMM:   2    -0.433710596201E+02   -0.10932E-03   -0.12771E-03  1728   0.199E-01    0.394E-02
RMM:   3    -0.433710584505E+02    0.11696E-05   -0.73880E-05  1055   0.523E-02
   6 F= -.45833640E+02 E0= -.45833640E+02  d E =-.409086E-02
 trial-energy change:   -0.004091  1 .order   -0.004067   -0.004694   -0.003440
 step:   3.9012(harm=  3.9012)  dis= 0.02676  next Energy=   -45.838331 (dE=-0.878E-02)
 bond charge predicted
       N       E                     dE             d eps       ncg     rms          rms(c)
DAV:   1    -0.433751984278E+02   -0.41388E-02   -0.28933E-01  1728   0.270E+00    0.163E-01
RMM:   2    -0.433760299534E+02   -0.83153E-03   -0.96649E-03  1728   0.546E-01    0.103E-01
RMM:   3    -0.433760253729E+02    0.45805E-05   -0.63343E-04  1721   0.140E-01
   7 F= -.45838620E+02 E0= -.45838620E+02  d E =-.907167E-02
 curvature:  -2.28 expect dE=-0.138E-01 dE for cont linesearch -0.346E-05
 trial: gam= 1.31007 g(F)=  0.603E-02 g(S)=  0.000E+00 ort = 0.894E-04 (trialstep = 0.556E+00)
 search vector abs. value=  0.153E-01
 bond charge predicted
       N       E                     dE             d eps       ncg     rms          rms(c)
DAV:   1    -0.433789533289E+02   -0.29234E-02   -0.31262E-02  2048   0.886E-01    0.569E-02
RMM:   2    -0.433790359503E+02   -0.82621E-04   -0.95679E-04  1707   0.172E-01
   8 F= -.45841609E+02 E0= -.45841609E+02  d E =-.298822E-02
 trial-energy change:   -0.002988  1 .order   -0.002935   -0.003414   -0.002456
 step:   1.9802(harm=  1.9802)  dis= 0.02775  next Energy=   -45.844705 (dE=-0.608E-02)
 bond charge predicted
       N       E                     dE             d eps       ncg     rms          rms(c)
DAV:   1    -0.433817766618E+02   -0.28233E-02   -0.20327E-01  1728   0.227E+00    0.142E-01
RMM:   2    -0.433823257723E+02   -0.54911E-03   -0.63625E-03  1728   0.441E-01    0.902E-02
RMM:   3    -0.433823326499E+02   -0.68776E-05   -0.43030E-04  1468   0.120E-01
   9 F= -.45844885E+02 E0= -.45844885E+02  d E =-.626440E-02
 curvature:  -2.46 expect dE=-0.187E-02 dE for cont linesearch -0.189E-06
 trial: gam= 0.18462 g(F)=  0.759E-03 g(S)=  0.000E+00 ort =-0.343E-04 (trialstep = 0.840E+00)
 search vector abs. value=  0.127E-02
 bond charge predicted
       N       E                     dE             d eps       ncg     rms          rms(c)
DAV:   1    -0.433826719201E+02   -0.34615E-03   -0.83138E-03  2192   0.438E-01    0.237E-02
RMM:   2    -0.433827133106E+02   -0.41391E-04   -0.41780E-04  1322   0.108E-01
  10 F= -.45845261E+02 E0= -.45845261E+02  d E =-.376351E-03
 trial-energy change:   -0.000376  1 .order   -0.000354   -0.000633   -0.000076
 step:   0.9548(harm=  0.9548)  dis= 0.00409  next Energy=   -45.845244 (dE=-0.359E-03)
 reached required accuracy - stopping structural energy minimisation
