 running on    8 total cores
 distrk:  each k-point on    8 cores,    1 groups
 distr:  one band on    2 cores,    4 groups
 using from now: INCAR     
 vasp.5.4.4.18Apr17-6-g9f103f2a35 (build Feb 26 2018 15:04:24) complex          
  
 POSCAR found type information on POSCAR  Si
 POSCAR found :  1 types and       8 ions
 scaLAPACK will be used

 ----------------------------------------------------------------------------- 
|                                                                             |
|  ADVICE TO THIS USER RUNNING 'VASP/VAMP'   (HEAR YOUR MASTER'S VOICE ...):  |
|                                                                             |
|      You have a (more or less) 'small supercell' and for smaller cells      |
|      it is recommended  to use the reciprocal-space projection scheme!      |
|      The real space optimization is not  efficient for small cells and it   |
|      is also less accurate ...                                              |
|      Therefore set LREAL=.FALSE. in the  INCAR file                         |
|                                                                             |
 ----------------------------------------------------------------------------- 

 LDA part: xc-table for Pade appr. of Perdew

 ----------------------------------------------------------------------------- 
|                                                                             |
|           W    W    AA    RRRRR   N    N  II  N    N   GGGG   !!!           |
|           W    W   A  A   R    R  NN   N  II  NN   N  G    G  !!!           |
|           W    W  A    A  R    R  N N  N  II  N N  N  G       !!!           |
|           W WW W  AAAAAA  RRRRR   N  N N  II  N  N N  G  GGG   !            |
|           WW  WW  A    A  R   R   N   NN  II  N   NN  G    G                |
|           W    W  A    A  R    R  N    N  II  N    N   GGGG   !!!           |
|                                                                             |
|      The number of bands has been changed from the values supplied          |
|      in the INCAR file. This is a result of running the parallel version.   |
|      The orbitals not found in the WAVECAR file will be initialized with    |
|      random numbers, which is usually adequate. For correlated              |
|      calculations, however, you should redo the groundstate calculation.    |
|      I found NBANDS    =       26  now  NBANDS  =      28                   |
|                                                                             |
 ----------------------------------------------------------------------------- 

 POSCAR, INCAR and KPOINTS ok, starting setup
 FFT: planning ...
 WAVECAR not read
 charge-density read from file: unknown                                 
 WARNING: random wavefunctions but no delay for mixing, default for NELMDL
 entering main loop
       N       E                     dE             d eps       ncg     rms          rms(c)
DAV:   1    -0.626031868605E+03   -0.62603E+03   -0.19847E+04  2072   0.103E+03
DAV:   2    -0.916413237452E+03   -0.29038E+03   -0.26348E+03  3000   0.323E+02
DAV:   3    -0.944123522909E+03   -0.27710E+02   -0.26155E+02  3424   0.915E+01
DAV:   4    -0.945545064024E+03   -0.14215E+01   -0.14097E+01  3456   0.229E+01
DAV:   5    -0.945608761703E+03   -0.63698E-01   -0.63571E-01  3364   0.487E+00    0.491E+01
RMM:   6     0.359986346027E+03    0.13056E+04   -0.14526E+03  3178   0.171E+02    0.191E+01
RMM:   7     0.413685511651E+03    0.53699E+02   -0.24301E+03  3106   0.204E+02    0.213E+01
RMM:   8     0.128020193909E+03   -0.28567E+03   -0.31856E+03  3160   0.246E+02    0.254E+01
RMM:   9     0.237292040349E+03    0.10927E+03   -0.81254E+02  3141   0.132E+02    0.172E+01
RMM:  10     0.207831522203E+03   -0.29461E+02   -0.51312E+02  3173   0.850E+01    0.116E+01
RMM:  11     0.181455850846E+03   -0.26376E+02   -0.34902E+02  3186   0.599E+01    0.863E+00
RMM:  12     0.167312334415E+03   -0.14144E+02   -0.22483E+02  3181   0.465E+01    0.536E+00
RMM:  13     0.154297256199E+03   -0.13015E+02   -0.13558E+02  3171   0.366E+01    0.562E+00
RMM:  14    -0.522548767178E+02   -0.20655E+03   -0.21200E+03  3179   0.176E+02    0.224E+01
RMM:  15    -0.336982338282E+03   -0.28473E+03   -0.19550E+03  3181   0.189E+02    0.345E+01
RMM:  16     0.924472288869E+03    0.12615E+04   -0.58648E+03  3172   0.449E+02    0.161E+01
RMM:  17     0.362951462591E+03   -0.56152E+03   -0.42193E+03  3179   0.292E+02    0.207E+01
RMM:  18     0.150095921387E+01   -0.36145E+03   -0.30515E+03  3184   0.234E+02    0.270E+01
RMM:  19    -0.287076067835E+03   -0.28858E+03   -0.22188E+03  3166   0.189E+02    0.338E+01
RMM:  20    -0.535261209134E+03   -0.24819E+03   -0.18066E+03  3170   0.174E+02    0.388E+01
RMM:  21    -0.767570313942E+03   -0.23231E+03   -0.13287E+03  3177   0.191E+02    0.423E+01
RMM:  22    -0.962601560516E+03   -0.19503E+03   -0.10428E+03  3179   0.182E+02    0.458E+01
RMM:  23    -0.113343120071E+04   -0.17083E+03   -0.94140E+02  3180   0.169E+02    0.491E+01
RMM:  24    -0.129004914094E+04   -0.15662E+03   -0.98219E+02  3178   0.146E+02    0.527E+01
RMM:  25    -0.141245836241E+04   -0.12241E+03   -0.91064E+02  3157   0.114E+02    0.557E+01
RMM:  26    -0.147401870410E+04   -0.61560E+02   -0.58768E+02  2953   0.774E+01    0.578E+01
RMM:  27    -0.149253904415E+04   -0.18520E+02   -0.21388E+02  2732   0.415E+01    0.587E+01
RMM:  28    -0.149361075334E+04   -0.10717E+01   -0.34748E+01  2506   0.196E+01    0.590E+01
RMM:  29    -0.149390214617E+04   -0.29139E+00   -0.67774E+00  2395   0.889E+00    0.590E+01
RMM:  30    -0.149709375981E+04   -0.31916E+01   -0.12465E+00  2413   0.398E+00    0.591E+01
RMM:  31    -0.147143101079E+04    0.25663E+02   -0.73468E-01  2556   0.346E+00    0.587E+01
RMM:  32    -0.138629753983E+04    0.85133E+02   -0.10070E+02  2114   0.635E+01    0.576E+01
RMM:  33    -0.136900304641E+04    0.17294E+02   -0.96899E+00  2160   0.236E+01    0.572E+01
RMM:  34    -0.139196359421E+04   -0.22961E+02   -0.28972E+00  2356   0.117E+01    0.574E+01
RMM:  35    -0.147452823897E+04   -0.82565E+02   -0.11891E+02  2104   0.767E+01    0.581E+01
RMM:  36    -0.159951070534E+04   -0.12498E+03   -0.25542E+01  2562   0.346E+01    0.609E+01
RMM:  37    -0.160765250748E+04   -0.81418E+01   -0.19217E+00  2550   0.927E+00    0.611E+01
RMM:  38    -0.159567100125E+04    0.11982E+02   -0.35239E-01  2556   0.371E+00    0.608E+01
RMM:  39    -0.159649061546E+04   -0.81961E+00   -0.19268E-01  2536   0.307E+00    0.607E+01
RMM:  40    -0.168004908364E+04   -0.83558E+02   -0.13877E+02  2114   0.859E+01    0.615E+01
RMM:  41    -0.168977057420E+04   -0.97215E+01   -0.18096E+01  2549   0.321E+01    0.620E+01
RMM:  42    -0.169004543591E+04   -0.27486E+00   -0.10343E+00  2587   0.758E+00    0.621E+01
RMM:  43    -0.169756586917E+04   -0.75204E+01   -0.17126E-01  2447   0.295E+00    0.620E+01
RMM:  44     0.122169740388E+04    0.29193E+04   -0.24211E+03  3190   0.287E+02    0.422E+01
RMM:  45     0.108142477717E+04   -0.14027E+03   -0.12704E+03  3173   0.158E+02    0.336E+01
RMM:  46     0.979948071830E+03   -0.10148E+03   -0.95946E+02  3161   0.124E+02    0.266E+01
RMM:  47     0.903967429164E+03   -0.75981E+02   -0.73481E+02  3174   0.102E+02    0.227E+01
RMM:  48     0.834608574962E+03   -0.69359E+02   -0.62189E+02  3176   0.899E+01    0.203E+01
RMM:  49     0.772948643749E+03   -0.61660E+02   -0.56461E+02  3171   0.815E+01    0.194E+01
RMM:  50     0.716000118404E+03   -0.56949E+02   -0.50364E+02  3176   0.760E+01    0.195E+01
RMM:  51     0.641073894964E+03   -0.74926E+02   -0.61573E+02  3174   0.793E+01    0.211E+01
RMM:  52     0.580670699605E+03   -0.60403E+02   -0.55883E+02  3161   0.757E+01    0.229E+01
RMM:  53     0.532926200090E+03   -0.47744E+02   -0.44446E+02  3167   0.705E+01    0.244E+01
RMM:  54     0.489457999832E+03   -0.43468E+02   -0.40089E+02  3165   0.678E+01    0.257E+01
RMM:  55     0.443825504690E+03   -0.45632E+02   -0.39133E+02  3166   0.666E+01    0.271E+01
RMM:  56     0.385865462597E+03   -0.57960E+02   -0.39437E+02  3175   0.717E+01    0.290E+01
RMM:  57     0.294619348079E+03   -0.91246E+02   -0.46752E+02  3182   0.808E+01    0.325E+01
RMM:  58     0.210273247126E+03   -0.84346E+02   -0.54559E+02  3173   0.863E+01    0.350E+01
RMM:  59     0.140805788232E+03   -0.69467E+02   -0.60018E+02  3167   0.963E+01    0.366E+01
RMM:  60     0.499608947310E+02   -0.90845E+02   -0.68756E+02  3162   0.103E+02    0.383E+01
RMM:  61     0.103869290316E+03    0.53908E+02   -0.21462E+03  3176   0.193E+02    0.266E+01
RMM:  62    -0.149861367562E+03   -0.25373E+03   -0.20265E+03  3183   0.269E+02    0.316E+01
RMM:  63     0.839597442434E+03    0.98946E+03   -0.47057E+03  3175   0.479E+02    0.298E+01
RMM:  64     0.275105704670E+03   -0.56449E+03   -0.29759E+03  3186   0.266E+02    0.326E+01
RMM:  65    -0.227339219020E+02   -0.29784E+03   -0.20252E+03  3178   0.166E+02    0.409E+01
RMM:  66     0.393855440382E+02    0.62119E+02   -0.11591E+03  3180   0.109E+02    0.353E+01
RMM:  67    -0.416894916845E+02   -0.81075E+02   -0.84401E+02  3178   0.835E+01    0.348E+01
RMM:  68    -0.122234775829E+03   -0.80545E+02   -0.61667E+02  3176   0.706E+01    0.351E+01
RMM:  69    -0.188651275728E+03   -0.66416E+02   -0.48423E+02  3187   0.671E+01    0.356E+01
RMM:  70    -0.259679852847E+03   -0.71029E+02   -0.45390E+02  3190   0.746E+01    0.365E+01
RMM:  71    -0.349698583955E+03   -0.90019E+02   -0.40997E+02  3189   0.839E+01    0.386E+01
RMM:  72    -0.388298948723E+03   -0.38600E+02   -0.33674E+02  3184   0.873E+01    0.392E+01
RMM:  73    -0.375663403367E+03    0.12636E+02   -0.33376E+02  3182   0.827E+01    0.387E+01
RMM:  74     0.297444697875E+01    0.37864E+03   -0.28600E+03  3186   0.236E+02    0.379E+01
RMM:  75     0.831347566298E+02    0.80160E+02   -0.11050E+03  3172   0.137E+02    0.202E+01
RMM:  76     0.189617992040E+02   -0.64173E+02   -0.66896E+02  3146   0.739E+01    0.164E+01
RMM:  77    -0.396209537262E+02   -0.58583E+02   -0.35925E+02  3110   0.489E+01    0.189E+01
RMM:  78    -0.512082020052E+02   -0.11587E+02   -0.12943E+02  3076   0.281E+01    0.187E+01
RMM:  79    -0.517673897463E+02   -0.55919E+00   -0.38748E+01  3038   0.155E+01    0.177E+01
RMM:  80    -0.530529341651E+02   -0.12855E+01   -0.12468E+01  3028   0.702E+00    0.174E+01
RMM:  81    -0.479700090828E+02    0.50829E+01   -0.10549E+01  2475   0.965E+00    0.164E+01
RMM:  82    -0.464259108434E+02    0.15441E+01   -0.27349E-01  2848   0.404E+00    0.161E+01
RMM:  83    -0.417638860615E+02    0.46620E+01   -0.48246E+00  2404   0.654E+00    0.151E+01
RMM:  84    -0.414102030211E+02    0.35368E+00   -0.37288E-02  2883   0.314E+00    0.149E+01
RMM:  85    -0.411547688476E+02    0.25543E+00   -0.31736E-01  2797   0.149E+00    0.148E+01
RMM:  86    -0.474353650652E+02   -0.62806E+01   -0.31673E+01  2368   0.174E+01    0.158E+01
RMM:  87    -0.193585236434E+03   -0.14615E+03   -0.11349E+03  2943   0.105E+02    0.260E+01
RMM:  88    -0.333780804849E+03   -0.14020E+03   -0.70276E+02  2539   0.981E+01    0.358E+01
RMM:  89    -0.409021687618E+03   -0.75241E+02   -0.24841E+02  2147   0.683E+01    0.409E+01
RMM:  90    -0.225712196359E+03    0.18331E+03   -0.45058E+02  2167   0.802E+01    0.357E+01
RMM:  91    -0.365298104798E+03   -0.13959E+03   -0.25536E+02  2016   0.749E+01    0.408E+01
RMM:  92    -0.443933391656E+03   -0.78635E+02   -0.12661E+02  2016   0.592E+01    0.438E+01
RMM:  93    -0.443856880907E+03    0.76511E-01   -0.13570E+01  2488   0.186E+01    0.451E+01
RMM:  94    -0.745859329932E+03   -0.30200E+03   -0.16643E+03  2443   0.228E+02    0.458E+01
RMM:  95     0.850748920810E+03    0.15966E+04   -0.56721E+03  3179   0.473E+02    0.296E+01
RMM:  96    -0.541619354878E+03   -0.13924E+04   -0.35050E+03  3178   0.352E+02    0.356E+01
RMM:  97    -0.593004564329E+03   -0.51385E+02   -0.10991E+03  2696   0.148E+02    0.464E+01
RMM:  98    -0.550030518104E+03    0.42974E+02   -0.17171E+02  2157   0.593E+01    0.472E+01
RMM:  99    -0.541179928447E+03    0.88506E+01   -0.12248E+01  2293   0.193E+01    0.472E+01
RMM: 100    -0.515979495591E+03    0.25200E+02   -0.20110E+00  2339   0.788E+00
   1 F= -.51844204E+03 E0= -.51843798E+03  d E =-.518442E+03
 curvature:   0.00 expect dE= 0.000E+00 dE for cont linesearch  0.000E+00
 trial: gam= 0.00000 g(F)=  0.718E+03 g(S)=  0.000E+00 ort = 0.000E+00 (trialstep = 0.100E+01)
 search vector abs. value=  0.718E+03
 bond charge predicted
       N       E                     dE             d eps       ncg     rms          rms(c)
DAV:   1    -0.463669706857E+03    0.77510E+02   -0.18625E+04  2808   0.394E+02    0.420E+01
RMM:   2     0.195041469392E+03    0.65871E+03   -0.13244E+03  3128   0.185E+02    0.115E+01
RMM:   3     0.123117245667E+03   -0.71924E+02   -0.91662E+02  3179   0.108E+02    0.106E+01
RMM:   4     0.103511117372E+03   -0.19606E+02   -0.46407E+02  3171   0.642E+01    0.771E+00
RMM:   5     0.841495501000E+02   -0.19362E+02   -0.32034E+02  3157   0.460E+01    0.386E+00
RMM:   6     0.665802974933E+02   -0.17569E+02   -0.16319E+02  3160   0.299E+01    0.419E+00
