 running on    8 total cores
 distrk:  each k-point on    8 cores,    1 groups
 distr:  one band on    2 cores,    4 groups
 using from now: INCAR     
 vasp.5.4.4.18Apr17-6-g9f103f2a35 (build Feb 26 2018 15:04:24) complex          
  
 POSCAR found type information on POSCAR  B  N 
 POSCAR found :  2 types and       2 ions
 scaLAPACK will be used

 ----------------------------------------------------------------------------- 
|                                                                             |
|  ADVICE TO THIS USER RUNNING 'VASP/VAMP'   (HEAR YOUR MASTER'S VOICE ...):  |
|                                                                             |
|      You have a (more or less) 'small supercell' and for smaller cells      |
|      it is recommended  to use the reciprocal-space projection scheme!      |
|      The real space optimization is not  efficient for small cells and it   |
|      is also less accurate ...                                              |
|      Therefore set LREAL=.FALSE. in the  INCAR file                         |
|                                                                             |
 ----------------------------------------------------------------------------- 

 LDA part: xc-table for Pade appr. of Perdew
 POSCAR, INCAR and KPOINTS ok, starting setup
 FFT: planning ...
 WAVECAR not read
 WARNING: chargedensity file is incomplete
 entering main loop
       N       E                     dE             d eps       ncg     rms          rms(c)
DAV:   1     0.687332808209E+02    0.68733E+02   -0.32898E+03   504   0.717E+02
DAV:   2    -0.131938654894E+02   -0.81927E+02   -0.66548E+02   728   0.131E+02
DAV:   3    -0.194055106949E+02   -0.62116E+01   -0.62116E+01   656   0.651E+01
DAV:   4    -0.194842034846E+02   -0.78693E-01   -0.78693E-01   880   0.709E+00
DAV:   5    -0.194842278529E+02   -0.24368E-04   -0.24368E-04   712   0.142E-01    0.721E+00
RMM:   6    -0.178648744637E+02    0.16194E+01   -0.31890E+00   496   0.142E+01    0.264E+00
RMM:   7    -0.527102920119E+03   -0.50924E+03   -0.12535E+03   510   0.193E+03    0.205E+01
RMM:   8     0.434737072615E+02    0.57058E+03   -0.13438E+02   736   0.180E+02    0.105E+01
RMM:   9     0.114872244864E+02   -0.31986E+02   -0.71169E+01   669   0.799E+01    0.413E+00
RMM:  10     0.301869345355E+01   -0.84685E+01   -0.12626E+02   530   0.120E+02    0.407E+00
RMM:  11     0.161407676203E+01   -0.14046E+01   -0.35811E+01   587   0.554E+01    0.251E+00
RMM:  12    -0.676825566216E-01   -0.16818E+01   -0.15121E+01   587   0.234E+01    0.200E+00
RMM:  13    -0.310701139214E+00   -0.24302E+00   -0.10214E+00   545   0.752E+00    0.939E-01
RMM:  14    -0.156532793751E+01   -0.12546E+01   -0.10564E+01   577   0.559E+00    0.877E-01
RMM:  15    -0.160821749752E+01   -0.42890E-01   -0.35469E-01   531   0.151E+00    0.852E-01
RMM:  16    -0.324746997291E+03   -0.32314E+03    0.28979E+03   630   0.379E+03    0.205E+01
RMM:  17     0.608150307429E+02    0.38556E+03   -0.35256E+02   716   0.221E+02    0.102E+01
RMM:  18     0.251695214540E+02   -0.35646E+02   -0.21106E+02   705   0.105E+02    0.564E+00
RMM:  19     0.200732275412E+02   -0.50963E+01   -0.96531E+01   607   0.970E+01    0.339E+00
RMM:  20     0.472881568411E+01   -0.15344E+02   -0.58976E+01   648   0.585E+01    0.186E+00
RMM:  21    -0.125263654742E+01   -0.59815E+01   -0.30238E+01   586   0.331E+01    0.120E+00
RMM:  22    -0.305441129458E+01   -0.18018E+01   -0.11173E+01   583   0.184E+01    0.870E-01
RMM:  23    -0.464696529234E+01   -0.15926E+01    0.19497E+00   561   0.530E+00    0.126E+00
RMM:  24    -0.454490013731E+01    0.10207E+00    0.64875E+00   558   0.394E+00    0.101E+00
RMM:  25    -0.452897823230E+01    0.15922E-01    0.12314E-01   519   0.845E-01    0.918E-01
RMM:  26    -0.452378295775E+01    0.51953E-02   -0.69477E-03   521   0.552E-01    0.844E-01
RMM:  27    -0.451674456047E+01    0.70384E-02   -0.22480E-02   533   0.111E+00    0.784E-01
RMM:  28    -0.289670331925E+03   -0.28515E+03    0.38265E+03   653   0.462E+03    0.216E+01
RMM:  29     0.740066827250E+02    0.36368E+03   -0.42167E+02   712   0.223E+02    0.193E+01
RMM:  30     0.364601529191E+02   -0.37547E+02   -0.17976E+02   717   0.985E+01    0.665E+00
RMM:  31     0.220353403826E+02   -0.14425E+02   -0.10213E+02   661   0.693E+01    0.496E+00
RMM:  32     0.205273050081E+02   -0.15080E+01   -0.14192E+01   659   0.357E+01    0.506E+00
RMM:  33     0.197952107947E+02   -0.73209E+00   -0.56066E+00   674   0.133E+01    0.559E+00
RMM:  34     0.194852585020E+02   -0.30995E+00   -0.27684E+00   685   0.468E+00    0.551E+00
RMM:  35    -0.201235160486E+03   -0.22072E+03    0.14775E+03   667   0.406E+03    0.217E+01
RMM:  36     0.563808892864E+02    0.25762E+03   -0.28392E+02   719   0.189E+02    0.109E+01
RMM:  37     0.210503684153E+02   -0.35331E+02   -0.22308E+02   683   0.966E+01    0.691E+00
RMM:  38     0.214166570118E+02    0.36629E+00   -0.51246E+00   638   0.441E+01    0.505E+00
RMM:  39     0.217879672218E+02    0.37131E+00   -0.43876E+00   672   0.145E+01    0.463E+00
RMM:  40     0.217317837293E+02   -0.56183E-01   -0.77024E-01   653   0.501E+00    0.464E+00
RMM:  41     0.217425558447E+02    0.10772E-01   -0.15807E-01   667   0.203E+00    0.451E+00
RMM:  42     0.217428105934E+02    0.25475E-03   -0.19648E-02   661   0.101E+00    0.449E+00
RMM:  43     0.216695948176E+02   -0.73216E-01    0.18798E-02   641   0.105E+00    0.453E+00
RMM:  44     0.216981089796E+02    0.28514E-01   -0.90825E-03   607   0.938E-01    0.449E+00
RMM:  45     0.216657927455E+02   -0.32316E-01   -0.55046E-05   621   0.453E-01    0.455E+00
RMM:  46     0.218807559853E+02    0.21496E+00   -0.26968E-02   520   0.132E+00    0.422E+00
RMM:  47     0.223832458764E+02    0.50249E+00   -0.16096E-01   528   0.266E+00    0.354E+00
RMM:  48     0.223886871468E+02    0.54413E-02    0.15634E-02   651   0.964E-01    0.346E+00
RMM:  49     0.224975118904E+02    0.10882E+00   -0.32832E-02   566   0.888E-01    0.331E+00
RMM:  50     0.226079686776E+02    0.11046E+00   -0.27998E-02   594   0.100E+00    0.313E+00
RMM:  51     0.216491446452E+02   -0.95882E+00   -0.52925E-01   512   0.453E+00    0.455E+00
RMM:  52     0.217158986307E+02    0.66754E-01    0.77215E-02   651   0.133E+00    0.454E+00
RMM:  53     0.217260392584E+02    0.10141E-01   -0.94772E-04   638   0.517E-01    0.451E+00
RMM:  54     0.217539894839E+02    0.27950E-01   -0.31854E-04   635   0.294E-01    0.447E+00
RMM:  55     0.222790646645E+02    0.52508E+00   -0.21186E-01   565   0.269E+00    0.355E+00
RMM:  56     0.227998555644E+02    0.52079E+00    0.67673E-01   527   0.386E+00    0.276E+00
RMM:  57     0.230212986369E+02    0.22144E+00    0.27197E-01   611   0.336E+00    0.217E+00
RMM:  58     0.231119083310E+02    0.90610E-01    0.15943E-01   673   0.138E+00    0.192E+00
RMM:  59     0.230423617460E+02   -0.69547E-01   -0.45486E-02   634   0.908E-01    0.174E+00
RMM:  60     0.231793620207E+02    0.13700E+00    0.31535E+00   542   0.296E+00    0.144E+00
RMM:  61     0.230626307606E+02   -0.11673E+00    0.63427E-01   597   0.182E+00    0.167E+00
RMM:  62     0.232037789694E+02    0.14115E+00    0.22313E+00   623   0.186E+00    0.169E+00
RMM:  63     0.232189727224E+02    0.15194E-01   -0.26268E-02   615   0.754E-01    0.155E+00
RMM:  64     0.232289602240E+02    0.99875E-02    0.62103E-04   636   0.589E-01    0.147E+00
RMM:  65     0.232368801603E+02    0.79199E-02   -0.50825E-03   560   0.557E-01    0.140E+00
RMM:  66     0.232564639386E+02    0.19584E-01   -0.55292E-02   515   0.122E+00    0.971E-01
RMM:  67     0.232627526702E+02    0.62887E-02   -0.65044E-03   650   0.934E-01    0.846E-01
RMM:  68     0.232533950722E+02   -0.93576E-02   -0.45155E-03   648   0.454E-01    0.910E-01
RMM:  69    -0.105023180997E+04   -0.10735E+04   -0.12246E+04   677   0.600E+03    0.218E+01
RMM:  70     0.876516890658E+02    0.11379E+04   -0.41492E+02   735   0.214E+02    0.184E+01
RMM:  71     0.581339988763E+02   -0.29518E+02   -0.15120E+02   708   0.104E+02    0.437E+00
RMM:  72    -0.384897086353E+02   -0.96624E+02   -0.15080E+03   563   0.808E+02    0.690E+00
RMM:  73     0.101904388601E+02    0.48680E+02   -0.24797E+02   602   0.136E+02    0.435E+00
RMM:  74     0.554696604936E+01   -0.46435E+01   -0.24048E+01   658   0.474E+01    0.191E+00
RMM:  75    -0.169378553139E+01   -0.72408E+01   -0.39688E+01   624   0.398E+01    0.251E+00
RMM:  76    -0.680775919847E+01   -0.51140E+01   -0.11171E+01   518   0.542E+01    0.454E+00
RMM:  77    -0.971476962129E+01   -0.29070E+01   -0.38574E+01   547   0.340E+01    0.243E+00
RMM:  78    -0.113879076415E+02   -0.16731E+01   -0.95860E+00   541   0.155E+01    0.210E+00
RMM:  79    -0.124287342358E+02   -0.10408E+01   -0.37910E+00   512   0.661E+00    0.194E+00
RMM:  80    -0.137151791483E+02   -0.12864E+01   -0.95013E+00   522   0.422E+00    0.184E+00
RMM:  81    -0.103832466599E+03   -0.90117E+02   -0.61814E+02   513   0.503E+02    0.973E+00
RMM:  82    -0.142427635349E+02    0.89590E+02   -0.15830E+02   551   0.101E+02    0.242E+00
RMM:  83    -0.136201937691E+02    0.62257E+00   -0.84411E+00   512   0.175E+01    0.135E+00
RMM:  84    -0.136136494654E+02    0.65443E-02   -0.38272E-01   522   0.397E+00    0.122E+00
RMM:  85    -0.163762254976E+04   -0.16240E+04   -0.77498E+03   651   0.513E+03    0.245E+01
RMM:  86     0.774015644574E+02    0.17150E+04   -0.38154E+02   738   0.229E+02    0.208E+01
RMM:  87     0.475695428694E+02   -0.29832E+02   -0.17480E+02   710   0.938E+01    0.891E+00
RMM:  88     0.279584158924E+02   -0.19611E+02   -0.15173E+02   665   0.756E+01    0.422E+00
RMM:  89     0.202273254393E+02   -0.77311E+01   -0.73673E+01   606   0.721E+01    0.314E+00
RMM:  90     0.178093398820E+02   -0.24180E+01   -0.11290E+01   653   0.468E+01    0.367E+00
RMM:  91     0.199238651441E+02    0.21145E+01    0.87732E+00   633   0.257E+01    0.118E+00
RMM:  92     0.209181455598E+02    0.99428E+00    0.30510E+00   603   0.879E+00    0.809E-01
RMM:  93     0.210848387179E+02    0.16669E+00    0.70858E+00   644   0.444E+00    0.851E-01
RMM:  94    -0.641109863093E+02   -0.85196E+02    0.82109E+02   654   0.506E+03    0.194E+01
RMM:  95     0.796613319096E+02    0.14377E+03   -0.46476E+02   726   0.228E+02    0.163E+01
RMM:  96     0.369011971286E+02   -0.42760E+02   -0.18325E+02   706   0.112E+02    0.466E+00
RMM:  97     0.110532429141E+02   -0.25848E+02   -0.65783E+02   597   0.200E+02    0.320E+00
RMM:  98     0.365634296810E+01   -0.73969E+01   -0.66323E+01   617   0.699E+01    0.284E+00
RMM:  99     0.279045007693E+01   -0.86589E+00   -0.15738E+01   631   0.357E+01    0.198E+00
RMM: 100     0.343549424584E+01    0.64504E+00   -0.28718E+00   579   0.117E+01
   1 F= 0.32817454E+01 E0= 0.32817664E+01  d E =0.328175E+01
 BRION: g(F)=  0.402E-01 g(S)=  0.000E+00
 bond charge predicted
       N       E                     dE             d eps       ncg     rms          rms(c)
DAV:   1    -0.187782706071E+02   -0.21569E+02   -0.18865E+02   736   0.263E+01    0.618E+00
RMM:   2    -0.138614779049E+04   -0.13674E+04   -0.51898E+03   636   0.521E+03    0.237E+01
RMM:   3     0.926212609317E+02    0.14788E+04   -0.44577E+02   729   0.253E+02    0.221E+01
RMM:   4     0.660272688172E+02   -0.26594E+02   -0.19666E+02   731   0.103E+02    0.804E+00
RMM:   5     0.367310913056E+02   -0.29296E+02   -0.19980E+02   672   0.926E+01    0.479E+00
RMM:   6     0.319757930216E+02   -0.47553E+01   -0.32600E+01   683   0.483E+01    0.369E+00
RMM:   7     0.309145575844E+02   -0.10612E+01   -0.82786E+00   685   0.204E+01    0.342E+00
RMM:   8     0.302188132132E+02   -0.69574E+00   -0.48749E+00   697   0.851E+00    0.328E+00
RMM:   9     0.295796505825E+02   -0.63916E+00   -0.19693E+00   699   0.439E+00    0.331E+00
RMM:  10     0.296074639718E+02    0.27813E-01    0.50168E-02   708   0.146E+00    0.334E+00
RMM:  11     0.295668674125E+02   -0.40597E-01   -0.10508E-01   645   0.125E+00    0.346E+00
RMM:  12     0.295188257463E+02   -0.48042E-01   -0.38924E-02   686   0.127E+00    0.356E+00
RMM:  13    -0.102509873758E+04   -0.10546E+04   -0.13740E+04   683   0.649E+03    0.240E+01
RMM:  14     0.942045124275E+02    0.11193E+04   -0.38396E+02   737   0.208E+02    0.199E+01
RMM:  15     0.803071292077E+02   -0.13897E+02   -0.11010E+02   725   0.832E+01    0.150E+01
RMM:  16     0.633159285439E+02   -0.16991E+02   -0.70270E+02   593   0.244E+02    0.107E+01
RMM:  17     0.353889310649E+02   -0.27927E+02   -0.16404E+02   682   0.101E+02    0.546E+00
RMM:  18     0.232992746935E+02   -0.12090E+02   -0.55306E+01   679   0.544E+01    0.290E+00
RMM:  19     0.217522760909E+02   -0.15470E+01   -0.67539E+00   683   0.295E+01    0.292E+00
RMM:  20     0.213462264019E+02   -0.40605E+00   -0.54471E+00   670   0.116E+01    0.290E+00
RMM:  21     0.213231561440E+02   -0.23070E-01   -0.73924E-02   689   0.359E+00    0.291E+00
RMM:  22     0.212917855430E+02   -0.31371E-01   -0.39505E-02   684   0.162E+00    0.292E+00
RMM:  23     0.214364763318E+02    0.14469E+00   -0.33601E-01   650   0.273E+00    0.266E+00
RMM:  24     0.214659348908E+02    0.29459E-01   -0.31828E-02   620   0.148E+00    0.259E+00
RMM:  25     0.214525469793E+02   -0.13388E-01   -0.65759E-02   574   0.140E+00    0.262E+00
RMM:  26     0.213529236212E+02   -0.99623E-01   -0.23059E-01   599   0.193E+00    0.292E+00
RMM:  27     0.138294836377E+02   -0.75234E+01   -0.87775E+02   654   0.505E+03    0.193E+01
RMM:  28     0.760786008394E+02    0.62249E+02   -0.41569E+02   723   0.209E+02    0.163E+01
RMM:  29     0.348614922130E+02   -0.41217E+02   -0.15920E+02   701   0.105E+02    0.549E+00
RMM:  30     0.106423314044E+02   -0.24219E+02   -0.74248E+02   587   0.214E+02    0.274E+00
RMM:  31     0.150131620821E+01   -0.91410E+01   -0.74543E+01   613   0.745E+01    0.262E+00
RMM:  32    -0.856611000255E+01   -0.10067E+02   -0.33084E+01   625   0.396E+01    0.384E+00
RMM:  33    -0.149109784759E+02   -0.63449E+01   -0.24514E+01   558   0.270E+01    0.499E+00
RMM:  34    -0.178143575569E+02   -0.29034E+01   -0.92015E+00   515   0.139E+01    0.525E+00
RMM:  35    -0.184580527128E+02   -0.64370E+00   -0.23415E+00   504   0.741E+00    0.535E+00
RMM:  36    -0.186497667736E+02   -0.19171E+00   -0.10513E+00   498   0.187E+00    0.534E+00
RMM:  37    -0.510407787881E+02   -0.32391E+02   -0.18022E+02   496   0.205E+02    0.957E+00
RMM:  38    -0.186822648014E+02    0.32359E+02   -0.49763E+01   496   0.503E+01    0.584E+00
RMM:  39    -0.188765770850E+02   -0.19431E+00   -0.80905E-01   497   0.529E+00    0.535E+00
RMM:  40    -0.187152602222E+02    0.16132E+00   -0.15844E-01   496   0.230E+00    0.528E+00
RMM:  41    -0.186952568886E+02    0.20003E-01   -0.25585E-02   498   0.972E-01    0.522E+00
RMM:  42    -0.210764801522E+02   -0.23812E+01   -0.58981E+00   496   0.210E+01    0.606E+00
RMM:  43    -0.188333946434E+02    0.22431E+01   -0.30673E+00   496   0.112E+01    0.560E+00
RMM:  44    -0.186294566783E+02    0.20394E+00   -0.11032E-01   496   0.226E+00    0.496E+00
RMM:  45    -0.184611503801E+02    0.16831E+00   -0.39262E-01   496   0.450E+00    0.374E+00
RMM:  46    -0.678637317098E+03   -0.66018E+03   -0.13728E+03   526   0.193E+03    0.211E+01
RMM:  47     0.293827199970E+02    0.70802E+03   -0.28483E+02   740   0.193E+02    0.113E+01
RMM:  48    -0.209409923164E+01   -0.31477E+02   -0.15793E+02   645   0.830E+01    0.478E+00
RMM:  49    -0.122733923834E+02   -0.10179E+02   -0.49623E+01   557   0.447E+01    0.303E+00
RMM:  50    -0.149685606610E+02   -0.26952E+01   -0.14451E+01   534   0.176E+01    0.292E+00
RMM:  51    -0.149954887878E+02   -0.26928E-01   -0.31711E-01   515   0.512E+00    0.269E+00
RMM:  52    -0.148875741503E+02    0.10791E+00   -0.21717E-01   502   0.509E+00    0.304E+00
RMM:  53    -0.148008051002E+02    0.86769E-01    0.40351E-01   515   0.127E+00    0.303E+00
RMM:  54    -0.105882858723E+04   -0.10440E+04    0.46651E+03   624   0.401E+03    0.250E+01
RMM:  55     0.889182830897E+02    0.11477E+04   -0.46296E+02   726   0.266E+02    0.191E+01
RMM:  56     0.534021979226E+02   -0.35516E+02   -0.14981E+02   705   0.101E+02    0.836E+00
RMM:  57     0.270797705951E+02   -0.26322E+02   -0.64456E+02   636   0.180E+02    0.372E+00
RMM:  58     0.118443042162E+02   -0.15235E+02   -0.72793E+01   676   0.754E+01    0.163E+00
RMM:  59     0.561005738749E+01   -0.62342E+01   -0.19574E+01   666   0.484E+01    0.142E+00
RMM:  60     0.659410302582E+01    0.98405E+00   -0.64782E-01   597   0.230E+01    0.125E+00
RMM:  61     0.689859819066E+01    0.30450E+00    0.10260E+01   585   0.762E+00    0.126E+00
RMM:  62    -0.149939983280E+02   -0.21893E+02   -0.13106E+02   500   0.163E+02    0.546E+00
RMM:  63     0.499322056164E+01    0.19987E+02   -0.43206E+01   521   0.487E+01    0.182E+00
RMM:  64     0.546318655278E+01    0.46997E+00    0.14414E+01   588   0.160E+01    0.125E+00
RMM:  65     0.518722345795E+01   -0.27596E+00   -0.23011E+00   556   0.609E+00    0.108E+00
RMM:  66     0.511310486201E+01   -0.74119E-01    0.30747E+00   582   0.342E+00    0.119E+00
RMM:  67     0.517487132541E+01    0.61766E-01    0.19660E+00   532   0.232E+00    0.928E-01
RMM:  68     0.518572939509E+01    0.10858E-01   -0.16969E-02   573   0.116E+00    0.765E-01
RMM:  69     0.519026540679E+01    0.45360E-02    0.82394E-01   585   0.931E-01    0.824E-01
RMM:  70     0.519491236600E+01    0.46470E-02   -0.42339E-03   550   0.452E-01    0.814E-01
RMM:  71     0.518268155361E+01   -0.12231E-01   -0.49623E-03   549   0.299E-01    0.802E-01
RMM:  72    -0.872445787963E+03   -0.87763E+03   -0.34098E+03   551   0.294E+03    0.207E+01
RMM:  73     0.536062590459E+02    0.92605E+03   -0.27334E+02   733   0.220E+02    0.111E+01
RMM:  74     0.272060313370E+02   -0.26400E+02   -0.15522E+02   705   0.809E+01    0.504E+00
RMM:  75    -0.314667998209E+02   -0.58673E+02   -0.79891E+02   504   0.456E+02    0.650E+00
RMM:  76     0.502615892892E+01    0.36493E+02   -0.17582E+02   592   0.106E+02    0.243E+00
RMM:  77    -0.379754045084E+01   -0.88237E+01   -0.47368E+01   651   0.468E+01    0.228E+00
RMM:  78    -0.808737918880E+01   -0.42898E+01   -0.17093E+01   564   0.301E+01    0.255E+00
RMM:  79    -0.732900562886E+01    0.75837E+00    0.47129E+00   546   0.121E+01    0.203E+00
RMM:  80    -0.755270084999E+01   -0.22370E+00   -0.26881E-01   527   0.289E+00    0.217E+00
RMM:  81    -0.751128199549E+01    0.41419E-01    0.36680E+00   547   0.251E+00    0.215E+00
RMM:  82    -0.855159836511E+01   -0.10403E+01   -0.31797E-01   515   0.116E+00    0.229E+00
RMM:  83    -0.924424756966E+01   -0.69265E+00   -0.47092E+00   534   0.277E+00    0.206E+00
RMM:  84    -0.924619760411E+01   -0.19500E-02   -0.21608E-01   523   0.682E-01    0.203E+00
RMM:  85    -0.674281865212E+03   -0.66504E+03    0.31860E+03   626   0.434E+03    0.225E+01
RMM:  86     0.895274790283E+02    0.76381E+03   -0.46337E+02   718   0.254E+02    0.173E+01
RMM:  87     0.465141933280E+02   -0.43013E+02   -0.20501E+02   677   0.111E+02    0.695E+00
RMM:  88     0.423036461475E+01   -0.42284E+02   -0.13003E+03   560   0.443E+02    0.590E+00
RMM:  89     0.165828514824E+02    0.12352E+02   -0.12017E+02   632   0.103E+02    0.231E+00
RMM:  90     0.139431092901E+02   -0.26397E+01   -0.18306E+01   698   0.449E+01    0.206E+00
RMM:  91     0.992781537034E+01   -0.40153E+01   -0.33382E+01   572   0.581E+01    0.254E+00
RMM:  92     0.289883219446E+01   -0.70290E+01   -0.30165E+01   627   0.427E+01    0.258E+00
RMM:  93     0.174345402096E+01   -0.11554E+01    0.10203E+00   603   0.287E+01    0.159E+00
RMM:  94    -0.972645776745E+01   -0.11470E+02   -0.50124E+01   506   0.997E+01    0.528E+00
RMM:  95    -0.501820026859E+01    0.47083E+01   -0.30604E+01   525   0.410E+01    0.362E+00
RMM:  96    -0.722902134484E+01   -0.22108E+01    0.41453E+00   569   0.166E+01    0.295E+00
RMM:  97    -0.775940768776E+01   -0.53039E+00   -0.66428E+00   539   0.118E+01    0.264E+00
RMM:  98    -0.775545898914E+01    0.39487E-02   -0.33541E-01   553   0.288E+00    0.234E+00
RMM:  99    -0.768357588275E+01    0.71883E-01    0.99245E-01   522   0.223E+00    0.222E+00
RMM: 100    -0.142207064435E+02   -0.65371E+01   -0.33050E+01   496   0.588E+01
   2 F= -.14374458E+02 E0= -.14373593E+02  d E =-.176562E+02
 BRION: g(F)=  0.433E+00 g(S)=  0.000E+00 retain N=  1 mean eig= 0.25
 eig:   0.251
 bond charge predicted
       N       E                     dE             d eps       ncg     rms          rms(c)
DAV:   1    -0.183815352164E+02   -0.10698E+02   -0.97970E+01   640   0.345E+01    0.429E+00
RMM:   2    -0.291946000616E+02   -0.10813E+02   -0.67421E+01   496   0.107E+02    0.520E+00
RMM:   3    -0.179891556900E+02    0.11205E+02   -0.25977E+01   496   0.349E+01    0.279E+00
RMM:   4    -0.185818543654E+02   -0.59270E+00   -0.17270E+00   500   0.103E+01    0.150E+00
RMM:   5    -0.176844833375E+02    0.89737E+00   -0.27593E+00   496   0.939E+00    0.121E+00
RMM:   6    -0.176842722595E+02    0.21108E-03   -0.67393E-02   496   0.187E+00    0.129E+00
RMM:   7    -0.177108197527E+02   -0.26547E-01   -0.17478E-01   496   0.316E+00    0.205E+00
RMM:   8    -0.392494060559E+03   -0.37478E+03   -0.11269E+03   509   0.153E+03    0.181E+01
RMM:   9     0.387721292871E+01    0.39637E+03   -0.44798E+02   738   0.176E+02    0.618E+00
RMM:  10    -0.135523521564E+02   -0.17430E+02   -0.67082E+01   587   0.485E+01    0.222E+00
RMM:  11    -0.145497514980E+02   -0.99740E+00   -0.12726E+01   514   0.169E+01    0.203E+00
RMM:  12    -0.146830633562E+02   -0.13331E+00    0.71634E-01   502   0.620E+00    0.309E+00
RMM:  13    -0.145740324432E+02    0.10903E+00   -0.49745E-02   511   0.151E+00    0.279E+00
RMM:  14    -0.145797482938E+02   -0.57159E-02   -0.91669E-03   516   0.455E-01    0.282E+00
RMM:  15    -0.153204122085E+02   -0.74066E+00   -0.85465E-01   498   0.715E+00    0.568E+00
RMM:  16    -0.154223424400E+02   -0.10193E+00    0.77399E-01   511   0.179E+00    0.593E+00
RMM:  17    -0.152534582064E+02    0.16888E+00    0.21024E+00   507   0.172E+00    0.550E+00
RMM:  18    -0.146928567304E+02    0.56060E+00   -0.42942E-01   498   0.507E+00    0.346E+00
RMM:  19    -0.145213437461E+02    0.17151E+00   -0.18947E-01   500   0.337E+00    0.241E+00
RMM:  20    -0.147479229870E+02   -0.22658E+00   -0.85821E-02   500   0.230E+00    0.339E+00
RMM:  21    -0.417874718022E+03   -0.40313E+03    0.37256E+03   632   0.332E+03    0.222E+01
RMM:  22     0.620630796196E+02    0.47994E+03   -0.35112E+02   711   0.217E+02    0.969E+00
RMM:  23     0.310705281783E+02   -0.30993E+02   -0.18831E+02   698   0.974E+01    0.713E+00
RMM:  24     0.238602416743E+01   -0.28685E+02   -0.32037E+02   528   0.242E+02    0.588E+00
RMM:  25     0.167864404902E+02    0.14400E+02   -0.78015E+01   599   0.811E+01    0.447E+00
RMM:  26     0.131081250720E+02   -0.36783E+01   -0.22507E+01   674   0.393E+01    0.434E+00
RMM:  27     0.772551109471E+01   -0.53826E+01   -0.40277E+01   515   0.574E+01    0.464E+00
RMM:  28     0.106295743106E+02    0.29041E+01   -0.47448E+00   556   0.292E+01    0.259E+00
RMM:  29     0.125982032716E+02    0.19686E+01    0.69107E+00   628   0.205E+01    0.319E+00
RMM:  30     0.128398882317E+02    0.24168E+00    0.43599E+00   576   0.639E+00    0.301E+00
RMM:  31     0.129966158270E+02    0.15673E+00    0.49409E+00   540   0.525E+00    0.261E+00
RMM:  32     0.130150884302E+02    0.18473E-01    0.54239E-01   573   0.829E+00    0.318E+00
RMM:  33     0.129487190546E+02   -0.66369E-01    0.83839E-01   635   0.463E+00    0.302E+00
RMM:  34     0.135664699747E+02    0.61775E+00    0.14304E+00   582   0.303E+00    0.263E+00
RMM:  35     0.140707354224E+02    0.50427E+00    0.77485E+00   541   0.454E+00    0.322E+00
RMM:  36     0.141196214024E+02    0.48886E-01   -0.13307E-01   510   0.605E+00    0.132E+00
RMM:  37     0.142534940900E+02    0.13387E+00    0.25671E+00   593   0.318E+00    0.131E+00
RMM:  38     0.141085574898E+02   -0.14494E+00   -0.21323E-01   528   0.317E+00    0.149E+00
RMM:  39     0.140832312280E+02   -0.25326E-01    0.20741E+00   620   0.273E+00    0.196E+00
RMM:  40     0.140676537336E+02   -0.15577E-01    0.18279E+00   617   0.133E+00    0.194E+00
RMM:  41     0.141306081010E+02    0.62954E-01    0.10112E+00   522   0.988E-01    0.186E+00
RMM:  42     0.141286680505E+02   -0.19401E-02   -0.11198E-02   576   0.837E-01    0.162E+00
RMM:  43     0.141584962540E+02    0.29828E-01    0.18212E+00   633   0.133E+00    0.161E+00
RMM:  44     0.141375621437E+02   -0.20934E-01   -0.40620E-03   548   0.465E-01    0.172E+00
RMM:  45     0.139433345256E+02   -0.19423E+00    0.87131E-03   622   0.183E-01    0.171E+00
RMM:  46     0.141363962687E+02    0.19306E+00    0.36328E+00   445   0.791E-01    0.173E+00
RMM:  47     0.141643207963E+02    0.27925E-01   -0.12757E-01   548   0.147E+00    0.149E+00
RMM:  48     0.140432966949E+02   -0.12102E+00    0.29005E-01   586   0.523E-01    0.150E+00
RMM:  49     0.141226761681E+02    0.79379E-01    0.32587E+00   458   0.134E+00    0.147E+00
RMM:  50     0.141690716874E+02    0.46396E-01    0.43972E-01   427   0.272E-01    0.151E+00
RMM:  51     0.141148848200E+02   -0.54187E-01    0.10552E-01   545   0.468E-01    0.151E+00
RMM:  52    -0.657154338440E+03   -0.67127E+03    0.62686E+02   658   0.387E+03    0.214E+01
RMM:  53     0.596247898887E+02    0.71678E+03   -0.34614E+02   729   0.227E+02    0.980E+00
RMM:  54     0.259472832111E+02   -0.33678E+02   -0.25562E+02   702   0.114E+02    0.481E+00
RMM:  55     0.187137103319E+02   -0.72336E+01   -0.52216E+01   682   0.591E+01    0.328E+00
RMM:  56     0.209149912628E+02    0.22013E+01   -0.43735E+00   686   0.347E+01    0.228E+00
RMM:  57     0.160833856213E+02   -0.48316E+01   -0.77952E+01   502   0.990E+01    0.285E+00
RMM:  58     0.190826449557E+02    0.29993E+01   -0.12786E+01   551   0.432E+01    0.163E+00
RMM:  59     0.129620061828E+02   -0.61206E+01    0.15840E+01   653   0.308E+01    0.187E+00
RMM:  60     0.113374964131E+02   -0.16245E+01   -0.13975E+01   647   0.251E+01    0.151E+00
