 running on    8 total cores
 distrk:  each k-point on    8 cores,    1 groups
 distr:  one band on    2 cores,    4 groups
 using from now: INCAR     
 vasp.5.4.4.18Apr17-6-g9f103f2a35 (build Feb 26 2018 15:04:24) complex          
  
 POSCAR found type information on POSCAR  Mo S 
 POSCAR found :  2 types and       3 ions
 scaLAPACK will be used

 ----------------------------------------------------------------------------- 
|                                                                             |
|  ADVICE TO THIS USER RUNNING 'VASP/VAMP'   (HEAR YOUR MASTER'S VOICE ...):  |
|                                                                             |
|      You have a (more or less) 'small supercell' and for smaller cells      |
|      it is recommended  to use the reciprocal-space projection scheme!      |
|      The real space optimization is not  efficient for small cells and it   |
|      is also less accurate ...                                              |
|      Therefore set LREAL=.FALSE. in the  INCAR file                         |
|                                                                             |
 ----------------------------------------------------------------------------- 

 LDA part: xc-table for Pade appr. of Perdew
 POSCAR, INCAR and KPOINTS ok, starting setup
 FFT: planning ...
 WAVECAR not read
 WARNING: chargedensity file is incomplete
 entering main loop
       N       E                     dE             d eps       ncg     rms          rms(c)
DAV:   1     0.156162308449E+03    0.15616E+03   -0.11085E+04  1360   0.115E+03
DAV:   2    -0.773780017586E+01   -0.16390E+03   -0.16098E+03  1432   0.250E+02
DAV:   3    -0.229705098951E+02   -0.15233E+02   -0.15062E+02  1536   0.765E+01
DAV:   4    -0.232272564241E+02   -0.25675E+00   -0.25642E+00  1416   0.119E+01
DAV:   5    -0.232345512424E+02   -0.72948E-02   -0.72943E-02  1496   0.190E+00    0.695E+00
RMM:   6    -0.221694655679E+02    0.10651E+01   -0.70840E+00  1172   0.170E+01    0.275E+00
RMM:   7    -0.217384559308E+02    0.43101E+00   -0.74812E-01  1202   0.454E+00    0.137E+00
RMM:   8    -0.216910849922E+02    0.47371E-01   -0.27923E-01  1135   0.294E+00    0.386E-01
RMM:   9    -0.216857895406E+02    0.52955E-02   -0.15672E-02  1145   0.821E-01    0.173E-01
RMM:  10    -0.216842759163E+02    0.15136E-02   -0.35720E-03  1183   0.365E-01    0.517E-02
RMM:  11    -0.216841942657E+02    0.81651E-04   -0.19585E-03  1102   0.262E-01    0.761E-02
RMM:  12    -0.216839548288E+02    0.23944E-03   -0.85371E-04  1054   0.192E-01    0.241E-02
RMM:  13    -0.216841690908E+02   -0.21426E-03   -0.99687E-05   678   0.678E-02    0.105E-02
RMM:  14    -0.216842514315E+02   -0.82341E-04   -0.75076E-05   645   0.449E-02
   1 F= -.22623451E+02 E0= -.22623451E+02  d E =-.226235E+02
 curvature:   0.00 expect dE= 0.000E+00 dE for cont linesearch  0.000E+00
 trial: gam= 0.00000 g(F)=  0.516E-01 g(S)=  0.000E+00 ort = 0.000E+00 (trialstep = 0.100E+01)
 search vector abs. value=  0.516E-01
 bond charge predicted
       N       E                     dE             d eps       ncg     rms          rms(c)
DAV:   1    -0.216077775687E+02    0.76392E-01   -0.59667E+00  1096   0.292E+01    0.430E-01
RMM:   2    -0.217037348344E+02   -0.95957E-01   -0.10130E+00  1222   0.867E+00    0.200E-01
RMM:   3    -0.216998189696E+02    0.39159E-02   -0.42856E-02  1282   0.150E+00    0.134E-01
RMM:   4    -0.216998767458E+02   -0.57776E-04   -0.53020E-03  1197   0.499E-01    0.556E-02
RMM:   5    -0.216998850432E+02   -0.82974E-05   -0.23305E-04   715   0.118E-01
   2 F= -.22639567E+02 E0= -.22639567E+02  d E =-.161161E-01
 trial-energy change:   -0.016116  1 .order   -0.015784   -0.051638    0.020070
 step:   0.7201(harm=  0.7201)  dis= 0.01812  next Energy=   -22.642044 (dE=-0.186E-01)
 bond charge predicted
       N       E                     dE             d eps       ncg     rms          rms(c)
DAV:   1    -0.216958200303E+02    0.40567E-02   -0.46840E-01  1088   0.817E+00    0.117E-01
RMM:   2    -0.217031663386E+02   -0.73463E-02   -0.77126E-02  1221   0.239E+00    0.568E-02
RMM:   3    -0.217028256632E+02    0.34068E-03   -0.31597E-03  1100   0.406E-01    0.369E-02
RMM:   4    -0.217028300607E+02   -0.43975E-05   -0.39973E-04   775   0.150E-01
   3 F= -.22642372E+02 E0= -.22642372E+02  d E =-.189213E-01
 curvature:  -0.36 expect dE=-0.408E-03 dE for cont linesearch -0.124E-05
 ZBRENT: interpolating
 opt :   0.7259  next Energy=   -22.642374 (dE=-0.189E-01)
 bond charge predicted
       N       E                     dE             d eps       ncg     rms          rms(c)
DAV:   1    -0.217028325916E+02   -0.69284E-05   -0.28006E-04  1216   0.189E-01    0.532E-03
RMM:   2    -0.217028369395E+02   -0.43479E-05   -0.28352E-05   544   0.502E-02
   4 F= -.22642382E+02 E0= -.22642382E+02  d E =-.189310E-01
 curvature:  -0.35 expect dE=-0.419E-03 dE for cont linesearch -0.106E-05
 ZBRENT: interpolating
 opt :   0.7231  next Energy=   -22.642383 (dE=-0.189E-01)
 bond charge predicted
       N       E                     dE             d eps       ncg     rms          rms(c)
DAV:   1    -0.217028398289E+02   -0.72373E-05   -0.49875E-05   544   0.810E-02    0.234E-03
RMM:   2    -0.217028418099E+02   -0.19810E-05   -0.69584E-06   427   0.262E-02
   5 F= -.22642386E+02 E0= -.22642386E+02  d E =-.189345E-01
 curvature:  -0.18 expect dE=-0.214E-03 dE for cont linesearch -0.346E-06
 ZBRENT: interpolating
 opt :   0.7243  next Energy=   -22.642386 (dE=-0.189E-01)
 bond charge predicted
       N       E                     dE             d eps       ncg     rms          rms(c)
DAV:   1    -0.217028424389E+02   -0.26099E-05   -0.81603E-06   544   0.353E-02    0.100E-03
RMM:   2    -0.217028434579E+02   -0.10190E-05   -0.20523E-07    85   0.992E-03
   6 F= -.22642388E+02 E0= -.22642388E+02  d E =-.189368E-01
 curvature:  -0.10 expect dE=-0.121E-03 dE for cont linesearch -0.225E-06
 ZBRENT: interpolating
 opt :   0.7237  next Energy=   -22.642386 (dE=-0.189E-01)
 bond charge predicted
       N       E                     dE             d eps       ncg     rms          rms(c)
DAV:   1    -0.217028449732E+02   -0.25343E-05   -0.18038E-06   544   0.202E-02    0.467E-04
RMM:   2    -0.217028456461E+02   -0.67292E-06    0.00000E+00    18   0.585E-03
   7 F= -.22642390E+02 E0= -.22642390E+02  d E =-.189386E-01
 curvature:  -0.04 expect dE=-0.488E-04 dE for cont linesearch -0.278E-07
 trial: gam= 0.01896 g(F)=  0.116E-02 g(S)=  0.000E+00 ort = 0.185E-03 (trialstep = 0.945E+00)
 search vector abs. value=  0.119E-02
 bond charge predicted
       N       E                     dE             d eps       ncg     rms          rms(c)
DAV:   1    -0.217030609471E+02   -0.21597E-03   -0.60266E-02  1120   0.186E+00    0.411E-02
RMM:   2    -0.217034423002E+02   -0.38135E-03   -0.40655E-03  1164   0.529E-01    0.186E-02
RMM:   3    -0.217033918912E+02    0.50409E-04   -0.12218E-04   690   0.101E-01
   8 F= -.22643187E+02 E0= -.22643187E+02  d E =-.797742E-03
 trial-energy change:   -0.000798  1 .order   -0.000740   -0.001103   -0.000378
 step:   1.4365(harm=  1.4365)  dis= 0.00612  next Energy=   -22.643228 (dE=-0.839E-03)
 bond charge predicted
       N       E                     dE             d eps       ncg     rms          rms(c)
DAV:   1    -0.217033401607E+02    0.10214E-03   -0.16190E-02  1232   0.959E-01    0.219E-02
RMM:   2    -0.217034360649E+02   -0.95904E-04   -0.10138E-03  1068   0.273E-01    0.117E-02
RMM:   3    -0.217034259050E+02    0.10160E-04   -0.38326E-05   612   0.640E-02
   9 F= -.22643353E+02 E0= -.22643353E+02  d E =-.962848E-03
 curvature:  -0.73 expect dE=-0.414E-03 dE for cont linesearch -0.107E-04
 ZBRENT: extrapolating
 opt :   1.6788  next Energy=   -22.643369 (dE=-0.979E-03)
 bond charge predicted
       N       E                     dE             d eps       ncg     rms          rms(c)
DAV:   1    -0.217033597662E+02    0.76299E-04   -0.38284E-03  1232   0.469E-01    0.110E-02
RMM:   2    -0.217033806548E+02   -0.20889E-04   -0.22437E-04   729   0.141E-01
  10 F= -.22643372E+02 E0= -.22643372E+02  d E =-.982215E-03
 curvature:  -1.09 expect dE=-0.801E-03 dE for cont linesearch -0.623E-05
 trial: gam= 0.69573 g(F)=  0.733E-03 g(S)=  0.000E+00 ort =-0.824E-04 (trialstep = 0.109E+01)
 search vector abs. value=  0.119E-02
 bond charge predicted
       N       E                     dE             d eps       ncg     rms          rms(c)
DAV:   1    -0.217023090454E+02    0.10507E-02   -0.10626E-01  1096   0.327E+00    0.592E-02
RMM:   2    -0.217034865387E+02   -0.11775E-02   -0.12651E-02  1211   0.958E-01    0.277E-02
RMM:   3    -0.217033984916E+02    0.88047E-04   -0.46518E-04   772   0.178E-01
  11 F= -.22643424E+02 E0= -.22643424E+02  d E =-.522031E-04
 trial-energy change:   -0.000052  1 .order    0.000072   -0.000735    0.000878
 step:   0.4952(harm=  0.4952)  dis= 0.00173  next Energy=   -22.643539 (dE=-0.167E-03)
 bond charge predicted
       N       E                     dE             d eps       ncg     rms          rms(c)
DAV:   1    -0.217032546392E+02    0.23190E-03   -0.31916E-02  1096   0.179E+00    0.327E-02
RMM:   2    -0.217035901424E+02   -0.33550E-03   -0.36312E-03  1210   0.509E-01    0.128E-02
RMM:   3    -0.217035653226E+02    0.24820E-04   -0.12493E-04   695   0.949E-02
  12 F= -.22643572E+02 E0= -.22643572E+02  d E =-.200421E-03
 curvature:  -0.44 expect dE=-0.357E-04 dE for cont linesearch -0.198E-04
 trial: gam=-0.18905 g(F)=  0.816E-04 g(S)=  0.000E+00 ort = 0.232E-03 (trialstep = 0.969E+00)
 search vector abs. value=  0.363E-04
 reached required accuracy - stopping structural energy minimisation
