 running on    8 total cores
 distrk:  each k-point on    8 cores,    1 groups
 distr:  one band on    2 cores,    4 groups
 using from now: INCAR     
 vasp.5.4.4.18Apr17-6-g9f103f2a35 (build Feb 26 2018 15:04:24) complex          
  
 POSCAR found type information on POSCAR  Mo S 
 POSCAR found :  2 types and       3 ions
 scaLAPACK will be used

 ----------------------------------------------------------------------------- 
|                                                                             |
|  ADVICE TO THIS USER RUNNING 'VASP/VAMP'   (HEAR YOUR MASTER'S VOICE ...):  |
|                                                                             |
|      You have a (more or less) 'small supercell' and for smaller cells      |
|      it is recommended  to use the reciprocal-space projection scheme!      |
|      The real space optimization is not  efficient for small cells and it   |
|      is also less accurate ...                                              |
|      Therefore set LREAL=.FALSE. in the  INCAR file                         |
|                                                                             |
 ----------------------------------------------------------------------------- 

 LDA part: xc-table for Pade appr. of Perdew
 WARNING: stress and forces are not correct
 POSCAR, INCAR and KPOINTS ok, starting setup
 FFT: planning ...
 WAVECAR not read
 charge-density read from file: unknown                                 
 entering main loop
       N       E                     dE             d eps       ncg     rms          rms(c)
DAV:   1     0.147978499680E+03    0.14798E+03   -0.10769E+04  5856   0.111E+03
DAV:   2    -0.673059060481E+01   -0.15471E+03   -0.15174E+03  6432   0.244E+02
DAV:   3    -0.207537502773E+02   -0.14023E+02   -0.13773E+02  6640   0.742E+01
DAV:   4    -0.209897519138E+02   -0.23600E+00   -0.23526E+00  6232   0.113E+01
DAV:   5    -0.209956476355E+02   -0.58957E-02   -0.58933E-02  6424   0.168E+00
DAV:   6    -0.209958769424E+02   -0.22931E-03   -0.22930E-03  6408   0.315E-01
DAV:   7    -0.209958858560E+02   -0.89137E-05   -0.89136E-05  5600   0.625E-02
   1 F= -.21935747E+02 E0= -.21935747E+02  d E =-.875352E-17
