 running on   16 total cores
 distrk:  each k-point on   16 cores,    1 groups
 distr:  one band on    4 cores,    4 groups
 using from now: INCAR     
 vasp.5.4.4.18Apr17-6-g9f103f2a35 (build Feb 26 2018 16:07:51) complex          
  
 POSCAR found type information on POSCAR  W  Se
 POSCAR found :  2 types and      36 ions
 scaLAPACK will be used
 LDA part: xc-table for Pade appr. of Perdew
 POSCAR, INCAR and KPOINTS ok, starting setup
 FFT: planning ...
 WAVECAR not read
 entering main loop
       N       E                     dE             d eps       ncg     rms          rms(c)
DAV:   1     0.232776351075E+04    0.23278E+04   -0.11942E+05  8136   0.113E+03
DAV:   2     0.869329561668E+02   -0.22408E+04   -0.21558E+04 10024   0.236E+02
DAV:   3    -0.247538705792E+03   -0.33447E+03   -0.33170E+03  8520   0.886E+01
DAV:   4    -0.260586682383E+03   -0.13048E+02   -0.12889E+02  8360   0.200E+01
DAV:   5    -0.260980922479E+03   -0.39424E+00   -0.39098E+00  9288   0.319E+00    0.381E+01
DAV:   6    -0.173784651076E+03    0.87196E+02   -0.26529E+02  7236   0.320E+01    0.220E+01
DAV:   7    -0.169739930773E+03    0.40447E+01   -0.20990E+01  8392   0.126E+01    0.181E+01
DAV:   8    -0.165487971063E+03    0.42520E+01   -0.18421E+01  8424   0.892E+00    0.124E+01
DAV:   9    -0.182165376841E+03   -0.16677E+02   -0.57367E+00  8104   0.565E+00    0.100E+01
DAV:  10    -0.212476999647E+03   -0.30312E+02   -0.18755E+01  7300   0.815E+00    0.748E+00
DAV:  11    -0.246432085029E+03   -0.33955E+02   -0.33061E+01  7816   0.927E+00    0.475E+00
DAV:  12    -0.258722522790E+03   -0.12290E+02   -0.11460E+01  7880   0.562E+00    0.354E+00
DAV:  13    -0.619763573428E+05   -0.61718E+05   -0.60094E+05 10196   0.179E+03    0.203E+02
DAV:  14     0.577009263632E+03    0.62553E+05   -0.74943E+04 12272   0.236E+02    0.422E+01
DAV:  15    -0.199450640717E+03   -0.77646E+03   -0.73806E+03  8748   0.173E+02    0.736E+00
DAV:  16    -0.259540709646E+03   -0.60090E+02   -0.53205E+02  8664   0.414E+01    0.221E+00
DAV:  17    -0.264240589545E+03   -0.46999E+01   -0.21702E+01  9760   0.898E+00    0.222E+00
DAV:  18    -0.265062712183E+03   -0.82212E+00   -0.77359E-01  9568   0.211E+00    0.211E+00
DAV:  19    -0.265662361345E+03   -0.59965E+00   -0.16354E-01  8352   0.110E+00    0.196E+00
DAV:  20    -0.267563038340E+03   -0.19007E+01   -0.24606E-01  8348   0.108E+00    0.195E+00
DAV:  21    -0.267850402601E+03   -0.28736E+00   -0.32592E-02  9112   0.568E-01    0.199E+00
DAV:  22    -0.268111454149E+03   -0.26105E+00   -0.26331E-02  8224   0.564E-01    0.194E+00
DAV:  23    -0.268215765457E+03   -0.10431E+00   -0.37310E-02  8268   0.446E-01    0.184E+00
DAV:  24    -0.268214986003E+03    0.77945E-03   -0.57911E-03  8200   0.208E-01    0.178E+00
DAV:  25    -0.268246138380E+03   -0.31152E-01   -0.82294E-03  8408   0.288E-01    0.160E+00
DAV:  26    -0.268335914423E+03   -0.89776E-01   -0.66678E-03  7992   0.303E-01    0.148E+00
DAV:  27    -0.168191876475E+06   -0.16792E+06   -0.20062E+06  9424   0.150E+04    0.121E+02
DAV:  28     0.713975594554E+03    0.16891E+06   -0.23982E+04 10236   0.545E+02    0.346E+01
DAV:  29    -0.188598318553E+03   -0.90257E+03   -0.82962E+03  8412   0.177E+02    0.718E+00
DAV:  30    -0.264947503407E+03   -0.76349E+02   -0.74686E+02  8152   0.546E+01    0.109E+00
DAV:  31    -0.268274588823E+03   -0.33271E+01   -0.27518E+01  9064   0.105E+01    0.853E-01
DAV:  32    -0.268393981287E+03   -0.11939E+00   -0.96707E-01  9344   0.187E+00    0.954E-01
DAV:  33    -0.268425304222E+03   -0.31323E-01   -0.38111E-02  9428   0.455E-01    0.101E+00
DAV:  34    -0.146603358557E+06   -0.14633E+06   -0.17027E+06  9400   0.130E+04    0.118E+02
DAV:  35     0.664462598624E+03    0.14727E+06   -0.23634E+04  9692   0.543E+02    0.359E+01
DAV:  36    -0.194485933213E+03   -0.85895E+03   -0.78403E+03  8172   0.177E+02    0.752E+00
DAV:  37    -0.265184874132E+03   -0.70699E+02   -0.69529E+02  8256   0.532E+01    0.116E+00
DAV:  38    -0.123395703396E+06   -0.12313E+06   -0.14062E+06  9384   0.110E+04    0.117E+02
DAV:  39     0.586058663450E+03    0.12398E+06   -0.21512E+04  9700   0.535E+02    0.379E+01
DAV:  40    -0.197459549445E+03   -0.78352E+03   -0.72184E+03  8300   0.170E+02    0.731E+00
DAV:  41    -0.796479227656E+05   -0.79450E+05   -0.87089E+05  9488   0.706E+03    0.106E+02
DAV:  42     0.367357861696E+03    0.80015E+05   -0.18444E+04  9088   0.480E+02    0.352E+01
DAV:  43    -0.222709022859E+03   -0.59007E+03   -0.55173E+03  8652   0.149E+02    0.625E+00
DAV:  44    -0.266850302539E+03   -0.44141E+02   -0.43106E+02  8352   0.417E+01    0.237E+00
DAV:  45    -0.268565719141E+03   -0.17154E+01   -0.16799E+01  9016   0.796E+00    0.239E+00
DAV:  46    -0.268536053076E+03    0.29666E-01   -0.56450E-01  9520   0.149E+00    0.195E+00
DAV:  47    -0.229824121670E+06   -0.22956E+06   -0.28953E+06  9384   0.201E+04    0.141E+02
DAV:  48     0.757763933127E+03    0.23058E+06   -0.27678E+04 10196   0.493E+02    0.411E+01
DAV:  49    -0.168742611263E+03   -0.92651E+03   -0.85055E+03  8660   0.188E+02    0.755E+00
DAV:  50    -0.481267860062E+05   -0.47958E+05   -0.49706E+05  8792   0.419E+03    0.941E+01
DAV:  51     0.120199575047E+03    0.48247E+05   -0.14409E+04  9924   0.345E+02    0.188E+01
DAV:  52    -0.245871784154E+03   -0.36607E+03   -0.34778E+03  8512   0.111E+02    0.397E+00
DAV:  53    -0.267758877025E+03   -0.21887E+02   -0.21550E+02  8248   0.286E+01    0.218E+00
DAV:  54    -0.268593560866E+03   -0.83468E+00   -0.81444E+00  9424   0.534E+00    0.233E+00
DAV:  55    -0.268618689634E+03   -0.25129E-01   -0.23040E-01  8832   0.997E-01    0.231E+00
DAV:  56    -0.268649895500E+03   -0.31206E-01   -0.29777E-02  8912   0.456E-01    0.245E+00
DAV:  57    -0.268614916491E+03    0.34979E-01   -0.10885E-02  8704   0.301E-01    0.229E+00
DAV:  58    -0.268599999989E+03    0.14917E-01   -0.39464E-03  8928   0.148E-01    0.220E+00
DAV:  59    -0.268584286727E+03    0.15713E-01   -0.19370E-03  9168   0.116E-01    0.212E+00
DAV:  60    -0.268577029168E+03    0.72576E-02   -0.18927E-03  8512   0.106E-01    0.205E+00
DAV:  61    -0.268569063399E+03    0.79658E-02   -0.12715E-03  8808   0.918E-02    0.199E+00
DAV:  62    -0.268562912638E+03    0.61508E-02   -0.12372E-03  8752   0.913E-02    0.192E+00
DAV:  63    -0.268555344044E+03    0.75686E-02   -0.17417E-03  8368   0.961E-02    0.185E+00
DAV:  64    -0.268547970674E+03    0.73734E-02   -0.14528E-03  8984   0.864E-02    0.179E+00
DAV:  65    -0.268543546336E+03    0.44243E-02   -0.41142E-04  9040   0.503E-02    0.175E+00
DAV:  66    -0.268540665774E+03    0.28806E-02   -0.11127E-04  7936   0.332E-02    0.174E+00
DAV:  67    -0.268536439512E+03    0.42263E-02   -0.16609E-04  8784   0.341E-02    0.172E+00
DAV:  68    -0.268534230370E+03    0.22091E-02   -0.57793E-05  7608   0.232E-02    0.170E+00
DAV:  69    -0.268532940861E+03    0.12895E-02   -0.34128E-05  7560   0.188E-02    0.170E+00
DAV:  70    -0.268531259793E+03    0.16811E-02   -0.49305E-05  7368   0.216E-02    0.169E+00
DAV:  71    -0.268521561085E+03    0.96987E-02   -0.26969E-03  7936   0.125E-01    0.165E+00
DAV:  72    -0.373559867331E+05   -0.37087E+05   -0.36810E+05  8616   0.316E+03    0.101E+02
DAV:  73     0.612858293372E+02    0.37417E+05   -0.12717E+04 10160   0.296E+02    0.173E+01
DAV:  74    -0.250284440493E+03   -0.31157E+03   -0.29232E+03  8304   0.101E+02    0.291E+00
DAV:  75    -0.267900778970E+03   -0.17616E+02   -0.17411E+02  8544   0.254E+01    0.175E+00
DAV:  76    -0.268488459041E+03   -0.58768E+00   -0.53780E+00  9048   0.434E+00    0.156E+00
DAV:  77    -0.268498869576E+03   -0.10411E-01   -0.18464E-01  8896   0.840E-01    0.155E+00
DAV:  78    -0.268499607389E+03   -0.73781E-03   -0.84930E-03  9560   0.209E-01    0.156E+00
DAV:  79    -0.146723558203E+06   -0.14646E+06   -0.17058E+06  9344   0.131E+04    0.118E+02
DAV:  80     0.645013602974E+03    0.14737E+06   -0.23128E+04  9924   0.539E+02    0.371E+01
DAV:  81    -0.193709998342E+03   -0.83872E+03   -0.76880E+03  8164   0.175E+02    0.903E+00
DAV:  82    -0.265581055451E+03   -0.71871E+02   -0.70891E+02  8312   0.532E+01    0.181E+00
DAV:  83    -0.268361217040E+03   -0.27802E+01   -0.27273E+01  8856   0.103E+01    0.171E+00
DAV:  84    -0.268465890464E+03   -0.10467E+00   -0.10407E+00  9360   0.185E+00    0.160E+00
DAV:  85    -0.268483595605E+03   -0.17705E-01   -0.28865E-02  8968   0.398E-01    0.149E+00
DAV:  86    -0.268494253810E+03   -0.10658E-01   -0.27855E-03  8608   0.176E-01    0.151E+00
DAV:  87    -0.268500891421E+03   -0.66376E-02   -0.16914E-03  9000   0.126E-01    0.155E+00
DAV:  88    -0.268504180596E+03   -0.32892E-02   -0.38738E-04  8504   0.806E-02    0.155E+00
DAV:  89    -0.268505045774E+03   -0.86518E-03   -0.17155E-04  8456   0.470E-02    0.155E+00
DAV:  90    -0.268505890515E+03   -0.84474E-03   -0.73773E-05  7960   0.287E-02    0.155E+00
DAV:  91    -0.268499351261E+03    0.65393E-02   -0.52913E-03  8104   0.191E-01    0.159E+00
DAV:  92    -0.268515914579E+03   -0.16563E-01   -0.23315E-03  8440   0.122E-01    0.161E+00
DAV:  93    -0.834855718230E+05   -0.83217E+05   -0.90427E+05  9832   0.725E+03    0.115E+02
DAV:  94     0.412082001224E+03    0.83898E+05   -0.20762E+04  9336   0.502E+02    0.363E+01
DAV:  95    -0.207557922050E+03   -0.61964E+03   -0.57103E+03  8580   0.154E+02    0.716E+00
DAV:  96    -0.266122082461E+03   -0.58564E+02   -0.56603E+02  8520   0.451E+01    0.198E+00
DAV:  97    -0.268582530975E+03   -0.24604E+01   -0.24779E+01  9016   0.890E+00    0.242E+00
DAV:  98    -0.268589532379E+03   -0.70014E-02   -0.83476E-01  8952   0.166E+00    0.221E+00
DAV:  99    -0.268548513638E+03    0.41019E-01   -0.55745E-02  8868   0.480E-01    0.189E+00
DAV: 100    -0.268532804752E+03    0.15709E-01   -0.81591E-03  9384   0.206E-01
