 running on    8 total cores
 distrk:  each k-point on    8 cores,    1 groups
 distr:  one band on    2 cores,    4 groups
 using from now: INCAR     
 vasp.5.4.4.18Apr17-6-g9f103f2a35 (build Feb 26 2018 15:04:24) complex          
  
 POSCAR found type information on POSCAR  Si
 POSCAR found :  1 types and       8 ions
 scaLAPACK will be used
 LDA part: xc-table for Pade appr. of Perdew

 ----------------------------------------------------------------------------- 
|                                                                             |
|           W    W    AA    RRRRR   N    N  II  N    N   GGGG   !!!           |
|           W    W   A  A   R    R  NN   N  II  NN   N  G    G  !!!           |
|           W    W  A    A  R    R  N N  N  II  N N  N  G       !!!           |
|           W WW W  AAAAAA  RRRRR   N  N N  II  N  N N  G  GGG   !            |
|           WW  WW  A    A  R   R   N   NN  II  N   NN  G    G                |
|           W    W  A    A  R    R  N    N  II  N    N   GGGG   !!!           |
|                                                                             |
|      The number of bands has been changed from the values supplied          |
|      in the INCAR file. This is a result of running the parallel version.   |
|      The orbitals not found in the WAVECAR file will be initialized with    |
|      random numbers, which is usually adequate. For correlated              |
|      calculations, however, you should redo the groundstate calculation.    |
|      I found NBANDS    =       26  now  NBANDS  =      28                   |
|                                                                             |
 ----------------------------------------------------------------------------- 

 WARNING: stress and forces are not correct
 POSCAR, INCAR and KPOINTS ok, starting setup
 FFT: planning ...
 WAVECAR not read
 charge-density read from file: unknown                                 
 entering main loop
       N       E                     dE             d eps       ncg     rms          rms(c)
DAV:   1     0.632206418899E+02    0.63221E+02   -0.11876E+04 13440   0.939E+02
DAV:   2    -0.377501199917E+02   -0.10097E+03   -0.93233E+02 17236   0.141E+02
DAV:   3    -0.427926333649E+02   -0.50425E+01   -0.49629E+01 17196   0.280E+01
DAV:   4    -0.428662922886E+02   -0.73659E-01   -0.73535E-01 16920   0.439E+00
DAV:   5    -0.428676737617E+02   -0.13815E-02   -0.13810E-02 16968   0.576E-01
DAV:   6    -0.428677084608E+02   -0.34699E-04   -0.34694E-04 16536   0.966E-02
   1 F= -.45332591E+02 E0= -.45332591E+02  d E =-.681352E-10
