 running on   16 total cores
 distrk:  each k-point on   16 cores,    1 groups
 distr:  one band on    4 cores,    4 groups
 using from now: INCAR     
 vasp.5.4.4.18Apr17-6-g9f103f2a35 (build Feb 26 2018 15:04:24) complex          
  
 POSCAR found type information on POSCAR  W  Se
 POSCAR found :  2 types and      36 ions
 scaLAPACK will be used
 LDA part: xc-table for Pade appr. of Perdew
 POSCAR, INCAR and KPOINTS ok, starting setup
 FFT: planning ...
 WAVECAR not read
 charge-density read from file: unknown                                 
 WARNING: random wavefunctions but no delay for mixing, default for NELMDL
 entering main loop
       N       E                     dE             d eps       ncg     rms          rms(c)
DAV:   1     0.224171619961E+04    0.22417E+04   -0.12073E+05  1696   0.125E+03
DAV:   2     0.102519072659E+03   -0.21392E+04   -0.20713E+04  1956   0.244E+02
DAV:   3    -0.243303278487E+03   -0.34582E+03   -0.34369E+03  1672   0.946E+01
DAV:   4    -0.258706087657E+03   -0.15403E+02   -0.15225E+02  1712   0.227E+01
DAV:   5    -0.259313077303E+03   -0.60699E+00   -0.60283E+00  1928   0.387E+00    0.114E-01
RMM:   6    -0.223309942513E+05   -0.22072E+05   -0.14440E+05  1727   0.157E+03    0.899E+01
RMM:   7     0.522176048184E+03    0.22853E+05   -0.12396E+04  2177   0.298E+02    0.223E+01
RMM:   8     0.333091676191E+03   -0.18908E+03   -0.32463E+03  1896   0.755E+01    0.128E+01
RMM:   9     0.101577430318E+03   -0.23151E+03   -0.18272E+03  2070   0.394E+01    0.873E+00
RMM:  10    -0.445193212746E+02   -0.14610E+03   -0.14134E+03  2163   0.241E+01    0.705E+00
RMM:  11    -0.125972340412E+03   -0.81453E+02   -0.81363E+02  2034   0.149E+01    0.584E+00
RMM:  12    -0.178550917792E+03   -0.52579E+02   -0.52920E+02  1994   0.102E+01    0.455E+00
RMM:  13    -0.216454227872E+03   -0.37903E+02   -0.36816E+02  1969   0.779E+00    0.298E+00
RMM:  14    -0.242241733819E+03   -0.25788E+02   -0.23440E+02  1908   0.577E+00    0.146E+00
RMM:  15    -0.254724777276E+03   -0.12483E+02   -0.12043E+02  1869   0.384E+00    0.572E-01
RMM:  16    -0.959928050011E+04   -0.93446E+04   -0.35485E+04  1766   0.257E+03    0.511E+01
RMM:  17     0.120675905270E+03    0.97200E+04   -0.81391E+03  2196   0.176E+02    0.401E+01
RMM:  18    -0.132588017099E+03   -0.25326E+03   -0.28413E+03  2201   0.553E+01    0.255E+01
RMM:  19    -0.231541866636E+03   -0.98954E+02   -0.12015E+03  2157   0.292E+01    0.958E+00
RMM:  20    -0.247608424924E+03   -0.16067E+02   -0.27900E+02  1927   0.136E+01    0.336E+00
RMM:  21    -0.255193745805E+03   -0.75853E+01   -0.81292E+01  1922   0.599E+00    0.129E+00
RMM:  22    -0.258673908753E+03   -0.34802E+01   -0.32124E+01  1919   0.270E+00    0.765E-01
RMM:  23    -0.259257959762E+03   -0.58405E+00   -0.53708E+00  1859   0.105E+00    0.677E-01
RMM:  24    -0.259324658917E+03   -0.66699E-01   -0.69866E-01  1741   0.362E-01    0.618E-01
RMM:  25    -0.259332702569E+03   -0.80437E-02   -0.85936E-02  1608   0.157E-01    0.561E-01
RMM:  26    -0.259333296847E+03   -0.59428E-03   -0.18065E-02  1542   0.147E-01    0.507E-01
RMM:  27    -0.419698008654E+04   -0.39376E+04   -0.14054E+05  1959   0.148E+04    0.741E+01
RMM:  28     0.400913451639E+04    0.82061E+04   -0.19214E+04  2311   0.603E+02    0.101E+02
RMM:  29     0.374628746279E+04   -0.26285E+03   -0.92619E+03  2464   0.212E+02    0.105E+02
RMM:  30     0.343139815827E+04   -0.31489E+03   -0.33529E+03  2450   0.789E+01    0.107E+02
RMM:  31     0.322838984528E+04   -0.20301E+03   -0.21412E+03  2436   0.487E+01    0.106E+02
RMM:  32     0.306911209755E+04   -0.15928E+03   -0.15373E+03  2478   0.327E+01    0.104E+02
RMM:  33     0.294382633969E+04   -0.12529E+03   -0.12091E+03  2455   0.252E+01    0.101E+02
RMM:  34     0.284358366206E+04   -0.10024E+03   -0.96328E+02  2461   0.193E+01    0.971E+01
RMM:  35     0.277157197130E+04   -0.72012E+02   -0.70863E+02  2399   0.141E+01    0.926E+01
RMM:  36     0.273154291953E+04   -0.40029E+02   -0.41204E+02  2344   0.946E+00    0.887E+01
RMM:  37    -0.164538389897E+03   -0.28961E+04   -0.93827E+03  1765   0.151E+02    0.802E+01
RMM:  38     0.272457937171E+04    0.28891E+04   -0.23167E+03  1964   0.112E+02    0.798E+01
RMM:  39     0.270001851507E+04   -0.24561E+02   -0.48113E+02  2247   0.312E+01    0.815E+01
RMM:  40     0.268672272718E+04   -0.13296E+02   -0.14711E+02  2283   0.103E+01    0.816E+01
RMM:  41     0.268120680020E+04   -0.55159E+01   -0.51747E+01  2436   0.402E+00    0.813E+01
RMM:  42     0.267807211542E+04   -0.31347E+01   -0.28350E+01  2422   0.201E+00    0.812E+01
RMM:  43     0.267629114113E+04   -0.17810E+01   -0.15467E+01  2432   0.143E+00    0.811E+01
RMM:  44     0.267517878619E+04   -0.11124E+01   -0.91809E+00  2046   0.933E-01    0.810E+01
RMM:  45     0.267442528069E+04   -0.75351E+00   -0.55094E+00  1674   0.843E-01    0.809E+01
RMM:  46     0.267391621734E+04   -0.50906E+00   -0.34706E+00  1907   0.521E-01    0.809E+01
RMM:  47     0.267360778572E+04   -0.30843E+00   -0.17046E+00  1431   0.538E-01    0.809E+01
RMM:  48     0.267345943293E+04   -0.14835E+00   -0.15382E+00  1336   0.286E-01    0.808E+01
RMM:  49     0.267334890845E+04   -0.11052E+00   -0.48661E-01  2026   0.391E-01    0.808E+01
RMM:  50     0.267224439572E+04   -0.11045E+01   -0.50358E-01  2050   0.664E-01    0.810E+01
RMM:  51     0.267326767368E+04    0.10233E+01   -0.71779E-02  1927   0.590E-01    0.808E+01
RMM:  52     0.267343131786E+04    0.16364E+00   -0.48464E-01  2051   0.396E-01    0.809E+01
RMM:  53    -0.443441618714E+05   -0.47018E+05   -0.25722E+05  1878   0.390E+03    0.633E+01
RMM:  54     0.239287908825E+04    0.46737E+05   -0.11305E+04  2148   0.457E+02    0.776E+01
RMM:  55     0.288418236935E+04    0.49130E+03   -0.31744E+03  1990   0.188E+02    0.808E+01
RMM:  56     0.277395349693E+04   -0.11023E+03   -0.19282E+03  2378   0.709E+01    0.823E+01
RMM:  57     0.270999919158E+04   -0.63954E+02   -0.83763E+02  2439   0.257E+01    0.827E+01
RMM:  58     0.269152004009E+04   -0.18479E+02   -0.26897E+02  2456   0.123E+01    0.820E+01
RMM:  59    -0.307227437978E+05   -0.33414E+05   -0.35510E+05  1969   0.950E+03    0.579E+01
RMM:  60     0.311696796036E+04    0.33840E+05   -0.13157E+04  2418   0.460E+02    0.811E+01
RMM:  61     0.286585737693E+04   -0.25111E+03   -0.81836E+03  2210   0.232E+02    0.867E+01
RMM:  62     0.269998886747E+04   -0.16587E+03   -0.27479E+03  2457   0.754E+01    0.842E+01
RMM:  63    -0.121517978157E+05   -0.14852E+05   -0.10317E+05  1935   0.176E+03    0.551E+01
RMM:  64     0.253060171575E+04    0.14682E+05   -0.68301E+03  2131   0.344E+02    0.663E+01
RMM:  65     0.267377915686E+04    0.14318E+03   -0.47818E+03  2416   0.137E+02    0.728E+01
RMM:  66     0.247824849294E+04   -0.19553E+03   -0.22046E+03  2499   0.612E+01    0.736E+01
RMM:  67     0.236154793957E+04   -0.11670E+03   -0.12517E+03  2436   0.317E+01    0.740E+01
RMM:  68     0.229402676171E+04   -0.67521E+02   -0.74143E+02  2438   0.188E+01    0.731E+01
RMM:  69     0.225738415387E+04   -0.36643E+02   -0.39532E+02  2460   0.117E+01    0.713E+01
RMM:  70     0.224053498024E+04   -0.16849E+02   -0.18065E+02  2431   0.663E+00    0.698E+01
RMM:  71    -0.408443431040E+05   -0.43085E+05   -0.18564E+05  1889   0.633E+03    0.521E+01
RMM:  72     0.168060174058E+04    0.42525E+05   -0.18369E+04  2371   0.424E+02    0.517E+01
RMM:  73     0.147618892602E+04   -0.20441E+03   -0.50239E+03  2060   0.220E+02    0.497E+01
RMM:  74     0.144313359084E+04   -0.33055E+02   -0.16351E+03  2089   0.113E+02    0.483E+01
RMM:  75    -0.255198262163E+05   -0.26963E+05   -0.10125E+05  1784   0.207E+03    0.447E+01
RMM:  76     0.130474953155E+04    0.26825E+05   -0.87761E+03  2086   0.303E+02    0.369E+01
RMM:  77     0.129285305171E+04   -0.11896E+02   -0.24592E+03  1971   0.152E+02    0.353E+01
RMM:  78     0.117972469467E+04   -0.11313E+03   -0.16084E+03  2292   0.685E+01    0.349E+01
RMM:  79    -0.419565142853E+05   -0.43136E+05   -0.23417E+05  1831   0.297E+03    0.971E+01
RMM:  80     0.194713563417E+04    0.43904E+05   -0.13470E+04  2178   0.363E+02    0.610E+01
RMM:  81     0.168760201696E+04   -0.25953E+03   -0.52810E+03  2214   0.143E+02    0.541E+01
RMM:  82    -0.596387815264E+05   -0.61326E+05   -0.30273E+05  1917   0.478E+03    0.103E+02
RMM:  83     0.282487596533E+04    0.62464E+05   -0.14246E+04  2309   0.367E+02    0.751E+01
RMM:  84     0.221689964936E+04   -0.60798E+03   -0.60496E+03  2358   0.140E+02    0.678E+01
RMM:  85     0.439560194535E+05    0.41739E+05   -0.42170E+04  2031   0.477E+03    0.551E+01
RMM:  86     0.203817449355E+04   -0.41918E+05   -0.10033E+04  2238   0.279E+02    0.578E+01
RMM:  87     0.161995123099E+04   -0.41822E+03   -0.62625E+03  2403   0.122E+02    0.500E+01
RMM:  88    -0.529810006112E+05   -0.54601E+05   -0.34063E+05  1975   0.444E+03    0.103E+02
RMM:  89     0.249183908986E+04    0.55473E+05   -0.13010E+04  2305   0.364E+02    0.769E+01
RMM:  90     0.661561141798E+04    0.41238E+04   -0.62526E+04  2154   0.928E+02    0.488E+01
RMM:  91     0.198595251708E+04   -0.46297E+04   -0.59712E+03  2159   0.212E+02    0.591E+01
RMM:  92     0.185694919529E+04   -0.12900E+03   -0.36922E+03  2303   0.119E+02    0.559E+01
RMM:  93     0.274321477581E+05    0.25575E+05   -0.38193E+04  1874   0.407E+03    0.477E+01
RMM:  94     0.185243832647E+04   -0.25580E+05   -0.97817E+03  2210   0.275E+02    0.493E+01
RMM:  95     0.146344074933E+04   -0.38900E+03   -0.50243E+03  2265   0.136E+02    0.408E+01
RMM:  96     0.127119869368E+04   -0.19224E+03   -0.23443E+03  2486   0.571E+01    0.401E+01
RMM:  97    -0.883730737376E+04   -0.10109E+05   -0.81161E+04  1794   0.898E+02    0.442E+01
RMM:  98     0.154268979972E+04    0.10380E+05   -0.54317E+03  1986   0.207E+02    0.379E+01
RMM:  99     0.142774792148E+04   -0.11494E+03   -0.40851E+03  2273   0.884E+01    0.321E+01
RMM: 100     0.106269493223E+04   -0.36505E+03   -0.22263E+03  2430   0.522E+01
