 running on    8 total cores
 distrk:  each k-point on    8 cores,    1 groups
 distr:  one band on    2 cores,    4 groups
 using from now: INCAR     
 vasp.5.4.4.18Apr17-6-g9f103f2a35 (build Feb 26 2018 15:04:24) complex          
  
 POSCAR found type information on POSCAR  B  N 
 POSCAR found :  2 types and       2 ions
 scaLAPACK will be used
 LDA part: xc-table for Pade appr. of Perdew
 WARNING: stress and forces are not correct
 POSCAR, INCAR and KPOINTS ok, starting setup
 FFT: planning ...
 WAVECAR not read
 charge-density read from file: unknown                                 
 entering main loop
       N       E                     dE             d eps       ncg     rms          rms(c)
DAV:   1     0.472433087543E+02    0.47243E+02   -0.28043E+03  2904   0.657E+02
DAV:   2    -0.122087357518E+02   -0.59452E+02   -0.44728E+02  4768   0.100E+02
DAV:   3    -0.165840337333E+02   -0.43753E+01   -0.42541E+01  3760   0.501E+01
DAV:   4    -0.166254124471E+02   -0.41379E-01   -0.41379E-01  4456   0.471E+00
DAV:   5    -0.166258976378E+02   -0.48519E-03   -0.48519E-03  4008   0.290E-01
DAV:   6    -0.166259059639E+02   -0.83260E-05   -0.83260E-05  4352   0.315E-02
   1 F= -.16779655E+02 E0= -.16779655E+02  d E =-.469081E-15
