       N       E                     dE             d eps       ncg     rms          rms(c)
DAV:   1     0.232044159857E+04    0.23204E+04   -0.12069E+05  1696   0.125E+03
DAV:   2     0.843722521448E+02   -0.22361E+04   -0.21714E+04  1960   0.250E+02
DAV:   3    -0.257782299758E+03   -0.34215E+03   -0.34057E+03  1664   0.953E+01
DAV:   4    -0.271015806278E+03   -0.13234E+02   -0.13117E+02  1600   0.220E+01
DAV:   5    -0.271564104991E+03   -0.54830E+00   -0.54609E+00  1888   0.377E+00    0.186E+01
RMM:   6    -0.262059473153E+03    0.95046E+01   -0.69586E+01  1675   0.140E+01    0.650E+00
RMM:   7    -0.259825709880E+03    0.22338E+01   -0.54839E+00  1479   0.354E+00    0.368E+00
RMM:   8    -0.259429766167E+03    0.39594E+00   -0.31450E+00  1428   0.248E+00    0.130E+00
RMM:   9    -0.259416379243E+03    0.13387E-01   -0.11712E+00  1685   0.171E+00    0.119E+00
RMM:  10    -0.259326082318E+03    0.90297E-01   -0.23771E-01  1573   0.875E-01    0.181E-01
RMM:  11    -0.259332270019E+03   -0.61877E-02   -0.10976E-01  1692   0.409E-01    0.425E-01
RMM:  12    -0.259321851212E+03    0.10419E-01   -0.45615E-02  1626   0.363E-01    0.745E-02
RMM:  13    -0.259322373817E+03   -0.52260E-03   -0.50329E-03  1474   0.845E-02    0.102E-01
RMM:  14    -0.259324635481E+03   -0.22617E-02   -0.24547E-03  1320   0.736E-02    0.220E-02
RMM:  15    -0.259325358922E+03   -0.72344E-03   -0.39697E-04  1000   0.251E-02    0.132E-02
RMM:  16    -0.259326114369E+03   -0.75545E-03   -0.10441E-04   754   0.166E-02    0.115E-02
RMM:  17    -0.259326821781E+03   -0.70741E-03   -0.81803E-05   654   0.125E-02    0.911E-03
RMM:  18    -0.259327201314E+03   -0.37953E-03   -0.28543E-05   525   0.788E-03    0.322E-03
RMM:  19    -0.259327279603E+03   -0.78289E-04   -0.22177E-05   547   0.755E-03
   1 F= -.27122168E+03 E0= -.27122168E+03  d E =-.271222E+03
       N       E                     dE             d eps       ncg     rms          rms(c)
DAV:   1    -0.259323137593E+03    0.40637E-02   -0.72225E-02  1532   0.548E-01    0.611E-02
RMM:   2    -0.259323639828E+03   -0.50223E-03   -0.57985E-03  1468   0.168E-01    0.178E-02
RMM:   3    -0.259323624525E+03    0.15303E-04   -0.18411E-04   840   0.347E-02
   2 F= -.27122274E+03 E0= -.27122274E+03  d E =-.105764E-02
