 running on    8 total cores
 distrk:  each k-point on    8 cores,    1 groups
 distr:  one band on    2 cores,    4 groups
 using from now: INCAR     
 vasp.5.4.4.18Apr17-6-g9f103f2a35 (build Feb 26 2018 15:04:24) complex          
  
 POSCAR found type information on POSCAR  B  N 
 POSCAR found :  2 types and       2 ions
 scaLAPACK will be used
 LDA part: xc-table for Pade appr. of Perdew
 WARNING: stress and forces are not correct
 POSCAR, INCAR and KPOINTS ok, starting setup
 FFT: planning ...
 WAVECAR not read
 charge-density read from file: unknown                                 
 entering main loop
       N       E                     dE             d eps       ncg     rms          rms(c)
DAV:   1     0.498910483056E+02    0.49891E+02   -0.29505E+03  2880   0.671E+02
DAV:   2    -0.116853748220E+02   -0.61576E+02   -0.46457E+02  4632   0.105E+02
DAV:   3    -0.165329586431E+02   -0.48476E+01   -0.45234E+01  3920   0.521E+01
DAV:   4    -0.165739772921E+02   -0.41019E-01   -0.41019E-01  4568   0.449E+00
DAV:   5    -0.165744509824E+02   -0.47369E-03   -0.47369E-03  4272   0.265E-01
DAV:   6    -0.165744659258E+02   -0.14943E-04   -0.14943E-04  4584   0.382E-02
   1 F= -.16728215E+02 E0= -.16728215E+02  d E =-.277857E-16
