 running on    8 total cores
 distrk:  each k-point on    8 cores,    1 groups
 distr:  one band on    2 cores,    4 groups
 using from now: INCAR     
 vasp.5.4.4.18Apr17-6-g9f103f2a35 (build Feb 26 2018 15:04:24) complex          
  
 POSCAR found type information on POSCAR  Mo S 
 POSCAR found :  2 types and       3 ions
 scaLAPACK will be used

 ----------------------------------------------------------------------------- 
|                                                                             |
|  ADVICE TO THIS USER RUNNING 'VASP/VAMP'   (HEAR YOUR MASTER'S VOICE ...):  |
|                                                                             |
|      You have a (more or less) 'small supercell' and for smaller cells      |
|      it is recommended  to use the reciprocal-space projection scheme!      |
|      The real space optimization is not  efficient for small cells and it   |
|      is also less accurate ...                                              |
|      Therefore set LREAL=.FALSE. in the  INCAR file                         |
|                                                                             |
 ----------------------------------------------------------------------------- 

 LDA part: xc-table for Pade appr. of Perdew
 POSCAR, INCAR and KPOINTS ok, starting setup
 FFT: planning ...
 WAVECAR not read
 augmentation electrons   24.0004434177444     
 soft         electrons  0.000000000000000E+000
 augmentation electrons   24.0004434177444     
 soft         electrons  0.000000000000000E+000
 augmentation electrons   24.0004434177444     
 soft         electrons  0.000000000000000E+000
 augmentation electrons   24.0004434177444     
 soft         electrons  0.000000000000000E+000
 augmentation electrons   24.0004434177444     
 soft         electrons  0.000000000000000E+000
 augmentation electrons   24.0004434177444     
 augmentation electrons   24.0004434177444     
 total        electrons   24.0004434177444     
 augmentation electrons   24.0004434177444     
 soft         electrons  0.000000000000000E+000
 total        electrons   24.0004434177444     
 soft         electrons  0.000000000000000E+000
 total        electrons   24.0004434177444     
 soft         electrons  0.000000000000000E+000
 total        electrons   24.0004434177444     
 total        electrons   24.0004434177444     
 total        electrons   24.0004434177444     
 total        electrons   24.0004434177444     
 total        electrons   24.0004434177444     
 augmentation electrons   50.6307889180994     
 soft         electrons  0.000000000000000E+000
 augmentation electrons   50.6307889180994     
 soft         electrons  0.000000000000000E+000
 augmentation electrons   50.6307889180994     
 soft         electrons  0.000000000000000E+000
 total        electrons   50.6307889180994     
 augmentation electrons   50.6307889180994     
 soft         electrons  0.000000000000000E+000
 total        electrons   50.6307889180994     
 augmentation electrons   50.6307889180994     
 soft         electrons  0.000000000000000E+000
 total        electrons   50.6307889180994     
 augmentation electrons   50.6307889180994     
 soft         electrons  0.000000000000000E+000
 total        electrons   50.6307889180994     
 augmentation electrons   50.6307889180994     
 soft         electrons  0.000000000000000E+000
 total        electrons   50.6307889180994     
 augmentation electrons   50.6307889180994     
 soft         electrons  0.000000000000000E+000
 total        electrons   50.6307889180994     
 total        electrons   50.6307889180994     
 total        electrons   50.6307889180994     
 entering main loop
       N       E                     dE             d eps       ncg     rms          rms(c)
DAV:   1     0.158593931109E+03    0.15859E+03   -0.11076E+04  1640   0.115E+03
DAV:   2    -0.778211321662E+01   -0.16638E+03   -0.16412E+03  1792   0.249E+02
DAV:   3    -0.229935349951E+02   -0.15211E+02   -0.15171E+02  1880   0.767E+01
DAV:   4    -0.232443883142E+02   -0.25085E+00   -0.25059E+00  1696   0.119E+01
DAV:   5    -0.232507455249E+02   -0.63572E-02   -0.63569E-02  1888   0.176E+00    0.695E+00
DAV:   6    -0.221108178997E+02    0.11399E+01   -0.14098E+01  1888   0.266E+01    0.302E+00
DAV:   7    -0.217565692863E+02    0.35425E+00   -0.33455E+00  1688   0.128E+01    0.157E+00
DAV:   8    -0.217074694806E+02    0.49100E-01   -0.31466E-01  1632   0.457E+00    0.372E-01
DAV:   9    -0.217050431874E+02    0.24263E-02   -0.16885E-02  1584   0.118E+00    0.151E-01
DAV:  10    -0.217037952388E+02    0.12479E-02   -0.28674E-03  1688   0.366E-01    0.416E-02
DAV:  11    -0.217036422826E+02    0.15296E-03   -0.41171E-04  1584   0.136E-01    0.325E-02
DAV:  12    -0.217035968250E+02    0.45458E-04   -0.25988E-03  1400   0.338E-01    0.462E-02
DAV:  13    -0.217033795048E+02    0.21732E-03   -0.93388E-04  1648   0.209E-01    0.226E-02
DAV:  14    -0.217034490121E+02   -0.69507E-04   -0.26381E-04  1080   0.990E-02
   1 F= -.22643310E+02 E0= -.22643310E+02  d E =-.691063E-17
 augmentation electrons   2.94393151670597     
 soft         electrons   21.0578665807603     
 total        electrons   24.0017980974663     
 augmentation electrons   2.94393151670597     
 soft         electrons   21.0578665807603     
 augmentation electrons   2.94393151670597     
 soft         electrons   21.0578665807603     
 total        electrons   24.0017980974663     
 augmentation electrons   2.94393151670597     
 soft         electrons   21.0578665807603     
 total        electrons   24.0017980974663     
 augmentation electrons   2.94393151670597     
 soft         electrons   21.0578665807603     
 total        electrons   24.0017980974663     
 augmentation electrons   2.94393151670597     
 soft         electrons   21.0578665807603     
 total        electrons   24.0017980974663     
 augmentation electrons   2.94393151670597     
 soft         electrons   21.0578665807603     
 total        electrons   24.0017980974663     
 augmentation electrons   2.94393151670597     
 soft         electrons   21.0578665807603     
 total        electrons   24.0017980974663     
 total        electrons   24.0017980974663     
