 running on    8 total cores
 distrk:  each k-point on    8 cores,    1 groups
 distr:  one band on    2 cores,    4 groups
 using from now: INCAR     
 vasp.5.4.4.18Apr17-6-g9f103f2a35 (build Feb 26 2018 15:04:24) complex          
  
 POSCAR found type information on POSCAR  B  N 
 POSCAR found :  2 types and       2 ions
 scaLAPACK will be used
 LDA part: xc-table for Pade appr. of Perdew
 WARNING: stress and forces are not correct
 POSCAR, INCAR and KPOINTS ok, starting setup
 FFT: planning ...
 WAVECAR not read
 charge-density read from file: unknown                                 
 entering main loop
       N       E                     dE             d eps       ncg     rms          rms(c)
DAV:   1     0.537070735468E+02    0.53707E+02   -0.30172E+03  2248   0.713E+02
DAV:   2    -0.128559656973E+02   -0.66563E+02   -0.52714E+02  3608   0.107E+02
DAV:   3    -0.175260745325E+02   -0.46701E+01   -0.46701E+01  2720   0.534E+01
DAV:   4    -0.175738431203E+02   -0.47769E-01   -0.47769E-01  3568   0.564E+00
DAV:   5    -0.175740446052E+02   -0.20148E-03   -0.20148E-03  2960   0.223E-01
DAV:   6    -0.175740503791E+02   -0.57739E-05   -0.57739E-05  3640   0.211E-02
   1 F= -.17727799E+02 E0= -.17727799E+02  d E =-.949665E-20
