 running on    8 total cores
 distrk:  each k-point on    8 cores,    1 groups
 distr:  one band on    2 cores,    4 groups
 using from now: INCAR     
 vasp.5.4.4.18Apr17-6-g9f103f2a35 (build Feb 26 2018 15:04:24) complex          
  
 POSCAR found type information on POSCAR  Si
 POSCAR found :  1 types and       8 ions
 scaLAPACK will be used
 LDA part: xc-table for Pade appr. of Perdew

 ----------------------------------------------------------------------------- 
|                                                                             |
|           W    W    AA    RRRRR   N    N  II  N    N   GGGG   !!!           |
|           W    W   A  A   R    R  NN   N  II  NN   N  G    G  !!!           |
|           W    W  A    A  R    R  N N  N  II  N N  N  G       !!!           |
|           W WW W  AAAAAA  RRRRR   N  N N  II  N  N N  G  GGG   !            |
|           WW  WW  A    A  R   R   N   NN  II  N   NN  G    G                |
|           W    W  A    A  R    R  N    N  II  N    N   GGGG   !!!           |
|                                                                             |
|      The number of bands has been changed from the values supplied          |
|      in the INCAR file. This is a result of running the parallel version.   |
|      The orbitals not found in the WAVECAR file will be initialized with    |
|      random numbers, which is usually adequate. For correlated              |
|      calculations, however, you should redo the groundstate calculation.    |
|      I found NBANDS    =       26  now  NBANDS  =      28                   |
|                                                                             |
 ----------------------------------------------------------------------------- 

 POSCAR, INCAR and KPOINTS ok, starting setup
 FFT: planning ...
 WAVECAR not read
 WARNING: random wavefunctions but no delay for mixing, default for NELMDL
 entering main loop
       N       E                     dE             d eps       ncg     rms          rms(c)
DAV:   1     0.533311485262E+02    0.53331E+02   -0.12008E+04  2016   0.941E+02
DAV:   2    -0.533913706318E+02   -0.10672E+03   -0.98815E+02  2500   0.148E+02
DAV:   3    -0.592413499628E+02   -0.58500E+01   -0.57195E+01  2672   0.315E+01
DAV:   4    -0.593654271635E+02   -0.12408E+00   -0.12367E+00  2580   0.555E+00
DAV:   5    -0.593690549797E+02   -0.36278E-02   -0.36261E-02  2608   0.932E-01    0.110E+01
DAV:   6    -0.781883883674E+02   -0.18819E+02   -0.46695E+02  2616   0.840E+01    0.155E+01
DAV:   7    -0.406294507308E+02    0.37559E+02   -0.16763E+02  2220   0.538E+01    0.436E+00
DAV:   8    -0.430431064868E+02   -0.24137E+01   -0.27705E+01  2536   0.186E+01    0.355E+00
DAV:   9    -0.429693360521E+02    0.73770E-01   -0.45569E-01  2548   0.351E+00    0.310E+00
DAV:  10    -0.428630251601E+02    0.10631E+00   -0.12407E+00  2300   0.448E+00    0.175E+00
DAV:  11    -0.428130172851E+02    0.50008E-01   -0.15976E-01  2276   0.174E+00    0.138E+00
DAV:  12    -0.427474271420E+02    0.65590E-01   -0.37126E-02  2384   0.823E-01    0.914E-01
DAV:  13    -0.427114735080E+02    0.35954E-01   -0.49767E-02  2492   0.887E-01    0.416E-01
DAV:  14    -0.427039724087E+02    0.75011E-02   -0.24927E-02  2504   0.625E-01    0.552E-02
DAV:  15    -0.427040050389E+02   -0.32630E-04   -0.23384E-03  2640   0.211E-01    0.293E-02
DAV:  16    -0.427040125220E+02   -0.74831E-05   -0.12394E-04  1588   0.472E-02
   1 F= -.45166560E+02 E0= -.45166560E+02  d E =-.451666E+02
 curvature:   0.00 expect dE= 0.000E+00 dE for cont linesearch  0.000E+00
 trial: gam= 0.00000 g(F)=  0.248E+01 g(S)=  0.000E+00 ort = 0.000E+00 (trialstep = 0.100E+01)
 search vector abs. value=  0.248E+01
 bond charge predicted
       N       E                     dE             d eps       ncg     rms          rms(c)
DAV:   1    -0.872421072732E+02   -0.44538E+02   -0.18632E+02  2412   0.628E+01    0.160E+01
DAV:   2    -0.140684318984E+03   -0.53442E+02   -0.13034E+03  2764   0.131E+02    0.238E+01
DAV:   3    -0.395899424242E+02    0.10109E+03   -0.42889E+02  2356   0.694E+01    0.385E+00
DAV:   4    -0.424139553919E+02   -0.28240E+01   -0.37983E+01  2520   0.223E+01    0.255E+00
DAV:   5    -0.421769741992E+02    0.23698E+00   -0.95916E-01  2524   0.471E+00    0.180E+00
DAV:   6    -0.420302901227E+02    0.14668E+00   -0.16222E-01  2564   0.176E+00    0.105E+00
DAV:   7    -0.419514438695E+02    0.78846E-01   -0.22612E-01  2456   0.221E+00    0.343E-01
DAV:   8    -0.419558098334E+02   -0.43660E-02   -0.66606E-02  2472   0.102E+00    0.224E-01
DAV:   9    -0.419544875932E+02    0.13222E-02   -0.37560E-03  2292   0.284E-01    0.125E-01
DAV:  10    -0.419544117026E+02    0.75891E-04   -0.13325E-03  2472   0.168E-01    0.355E-02
DAV:  11    -0.419544518148E+02   -0.40112E-04   -0.25125E-04  1780   0.691E-02
   2 F= -.44438649E+02 E0= -.44438158E+02  d E =0.727912E+00
 trial-energy change:    0.727912  1 .order    0.657604   -2.483824    3.799033
 step:   0.3795(harm=  0.3953)  dis= 0.04689  next Energy=   -45.634051 (dE=-0.467E+00)
 bond charge predicted
       N       E                     dE             d eps       ncg     rms          rms(c)
DAV:   1    -0.611034861233E+02   -0.19149E+02   -0.71601E+01  2304   0.383E+01    0.102E+01
DAV:   2    -0.825630138622E+02   -0.21460E+02   -0.45239E+02  2480   0.862E+01    0.164E+01
DAV:   3    -0.409524405744E+02    0.41611E+02   -0.17930E+02  2196   0.538E+01    0.246E+00
DAV:   4    -0.432780296201E+02   -0.23256E+01   -0.27170E+01  2384   0.187E+01    0.154E+00
DAV:   5    -0.432755613450E+02    0.24683E-02   -0.47529E-01  2504   0.352E+00    0.123E+00
DAV:   6    -0.431973008712E+02    0.78260E-01   -0.84954E-02  2352   0.130E+00    0.683E-01
DAV:   7    -0.431877372235E+02    0.95636E-02   -0.98068E-02  2472   0.124E+00    0.499E-01
DAV:   8    -0.431757941681E+02    0.11943E-01   -0.27456E-02  2368   0.723E-01    0.206E-01
DAV:   9    -0.431740887165E+02    0.17055E-02   -0.96766E-03  2604   0.390E-01    0.625E-02
DAV:  10    -0.431743075364E+02   -0.21882E-03   -0.17206E-03  2296   0.173E-01    0.608E-02
DAV:  11    -0.431740933660E+02    0.21417E-03   -0.72606E-04  2404   0.125E-01    0.627E-03
DAV:  12    -0.431741071476E+02   -0.13782E-04   -0.15538E-04  1404   0.517E-02
   3 F= -.45638807E+02 E0= -.45638807E+02  d E =-.472247E+00
 curvature:  -0.20 expect dE=-0.795E-03 dE for cont linesearch -0.101E-04
 ZBRENT: interpolating
 opt :   0.3814  next Energy=   -45.638817 (dE=-0.472E+00)
 bond charge predicted
       N       E                     dE             d eps       ncg     rms          rms(c)
DAV:   1    -0.431742387034E+02   -0.14534E-03   -0.68022E-04  2288   0.122E-01    0.263E-02
DAV:   2    -0.431743142055E+02   -0.75502E-04   -0.27965E-03  2308   0.252E-01    0.333E-02
DAV:   3    -0.431740915444E+02    0.22266E-03   -0.69613E-04  2216   0.138E-01    0.655E-03
DAV:   4    -0.431740934497E+02   -0.19053E-05   -0.53120E-05  1124   0.270E-02
   4 F= -.45638815E+02 E0= -.45638815E+02  d E =-.472255E+00
 curvature:  -0.20 expect dE=-0.809E-03 dE for cont linesearch -0.253E-07
 trial: gam= 0.00183 g(F)=  0.400E-02 g(S)=  0.000E+00 ort =-0.557E-03 (trialstep = 0.876E+00)
 search vector abs. value=  0.400E-02
 bond charge predicted
       N       E                     dE             d eps       ncg     rms          rms(c)
DAV:   1    -0.431759358081E+02   -0.18443E-02   -0.36561E-02  2128   0.802E-01    0.636E-02
DAV:   2    -0.431763572831E+02   -0.42147E-03   -0.11694E-02  2256   0.519E-01    0.682E-02
DAV:   3    -0.431755940605E+02    0.76322E-03   -0.32885E-03  2208   0.293E-01    0.247E-02
DAV:   4    -0.431756225580E+02   -0.28497E-04   -0.44455E-04  2480   0.794E-02
   5 F= -.45640511E+02 E0= -.45640511E+02  d E =-.169571E-02
 trial-energy change:   -0.001696  1 .order   -0.001682   -0.003503    0.000139
 step:   0.8428(harm=  0.8428)  dis= 0.00465  next Energy=   -45.640500 (dE=-0.168E-02)
 bond charge predicted
       N       E                     dE             d eps       ncg     rms          rms(c)
DAV:   1    -0.431756339516E+02   -0.39891E-04   -0.20157E-04  1844   0.654E-02    0.658E-03
DAV:   2    -0.431756369467E+02   -0.29950E-05   -0.13857E-04  1740   0.582E-02
   6 F= -.45640518E+02 E0= -.45640518E+02  d E =-.170247E-02
 curvature:  -0.42 expect dE=-0.517E-04 dE for cont linesearch -0.893E-07
 ZBRENT: interpolating
 opt :   0.8480  next Energy=   -45.640518 (dE=-0.170E-02)
 bond charge predicted
       N       E                     dE             d eps       ncg     rms          rms(c)
DAV:   1    -0.431756260847E+02    0.78670E-05   -0.29711E-05  1044   0.305E-02    0.188E-03
DAV:   2    -0.431756270476E+02   -0.96294E-06   -0.13751E-05  1020   0.151E-02
   7 F= -.45640509E+02 E0= -.45640509E+02  d E =-.169375E-02
 curvature:  -0.36 expect dE=-0.234E-04 dE for cont linesearch -0.292E-08
 trial: gam= 0.01206 g(F)=  0.656E-04 g(S)=  0.000E+00 ort = 0.573E-05 (trialstep = 0.871E+00)
 search vector abs. value=  0.663E-04
 reached required accuracy - stopping structural energy minimisation
