 running on    8 total cores
 distrk:  each k-point on    8 cores,    1 groups
 distr:  one band on    2 cores,    4 groups
 using from now: INCAR     
 vasp.5.4.4.18Apr17-6-g9f103f2a35 (build Feb 26 2018 15:04:24) complex          
  
 POSCAR found type information on POSCAR  Mo S 
 POSCAR found :  2 types and       3 ions
 scaLAPACK will be used

 ----------------------------------------------------------------------------- 
|                                                                             |
|  ADVICE TO THIS USER RUNNING 'VASP/VAMP'   (HEAR YOUR MASTER'S VOICE ...):  |
|                                                                             |
|      You have a (more or less) 'small supercell' and for smaller cells      |
|      it is recommended  to use the reciprocal-space projection scheme!      |
|      The real space optimization is not  efficient for small cells and it   |
|      is also less accurate ...                                              |
|      Therefore set LREAL=.FALSE. in the  INCAR file                         |
|                                                                             |
 ----------------------------------------------------------------------------- 

 LDA part: xc-table for Pade appr. of Perdew
 POSCAR, INCAR and KPOINTS ok, starting setup
 FFT: planning ...
 WAVECAR not read
 charge-density read from file: unknown                                 
 entering main loop
       N       E                     dE             d eps       ncg     rms          rms(c)
DAV:   1     0.151362847811E+03    0.15136E+03   -0.11061E+04  1360   0.115E+03
DAV:   2    -0.666611506946E+01   -0.15803E+03   -0.15643E+03  1448   0.245E+02
DAV:   3    -0.214641513157E+02   -0.14798E+02   -0.14702E+02  1536   0.760E+01
DAV:   4    -0.216987552686E+02   -0.23460E+00   -0.23413E+00  1424   0.117E+01
DAV:   5    -0.217043668157E+02   -0.56115E-02   -0.56110E-02  1496   0.169E+00    0.164E-02
RMM:   6    -0.217035421837E+02    0.82463E-03   -0.23313E-03   913   0.368E-01    0.534E-03
RMM:   7    -0.217035612089E+02   -0.19025E-04   -0.23076E-04   668   0.122E-01
   1 F= -.22643568E+02 E0= -.22643568E+02  d E =-.226436E+02
 curvature:   0.00 expect dE= 0.000E+00 dE for cont linesearch  0.000E+00
 trial: gam= 0.00000 g(F)=  0.317E-04 g(S)=  0.000E+00 ort = 0.000E+00 (trialstep = 0.100E+01)
 search vector abs. value=  0.317E-04
 bond charge predicted
       N       E                     dE             d eps       ncg     rms          rms(c)
DAV:   1    -0.217037037611E+02   -0.16158E-03   -0.23720E-03  1416   0.470E-01    0.106E-02
RMM:   2    -0.217037233634E+02   -0.19602E-04   -0.22955E-04   744   0.143E-01
   2 F= -.22643585E+02 E0= -.22643585E+02  d E =-.162769E-04
 trial-energy change:   -0.000016  1 .order   -0.000006   -0.000032    0.000019
 step:   0.6210(harm=  0.6210)  dis= 0.00060  next Energy=   -22.643578 (dE=-0.984E-05)
 reached required accuracy - stopping structural energy minimisation
