 running on    8 total cores
 distrk:  each k-point on    8 cores,    1 groups
 distr:  one band on    2 cores,    4 groups
 using from now: INCAR     
 vasp.5.4.4.18Apr17-6-g9f103f2a35 (build Feb 26 2018 15:04:24) complex          
  
 POSCAR found type information on POSCAR  B  N 
 POSCAR found :  2 types and       2 ions
 scaLAPACK will be used
 LDA part: xc-table for Pade appr. of Perdew
 POSCAR, INCAR and KPOINTS ok, starting setup
 FFT: planning ...
 WAVECAR not read
 augmentation electrons   8.00028967077280     
 soft         electrons  0.000000000000000E+000
 augmentation electrons   8.00028967077280     
 soft         electrons  0.000000000000000E+000
 augmentation electrons   8.00028967077280     
 soft         electrons  0.000000000000000E+000
 augmentation electrons   8.00028967077280     
 soft         electrons  0.000000000000000E+000
 augmentation electrons   8.00028967077280     
 augmentation electrons   8.00028967077280     
 soft         electrons  0.000000000000000E+000
 augmentation electrons   8.00028967077280     
 soft         electrons  0.000000000000000E+000
 total        electrons   8.00028967077280     
 augmentation electrons   8.00028967077280     
 total        electrons   8.00028967077280     
 total        electrons   8.00028967077280     
 soft         electrons  0.000000000000000E+000
 total        electrons   8.00028967077280     
 soft         electrons  0.000000000000000E+000
 total        electrons   8.00028967077280     
 total        electrons   8.00028967077280     
 total        electrons   8.00028967077280     
 total        electrons   8.00028967077280     
 augmentation electrons   4.00077063285905     
 soft         electrons  0.000000000000000E+000
 total        electrons   4.00077063285905     
 augmentation electrons   4.00077063285905     
 soft         electrons  0.000000000000000E+000
 total        electrons   4.00077063285905     
 augmentation electrons   4.00077063285905     
 soft         electrons  0.000000000000000E+000
 total        electrons   4.00077063285905     
 augmentation electrons   4.00077063285905     
 soft         electrons  0.000000000000000E+000
 total        electrons   4.00077063285905     
 augmentation electrons   4.00077063285905     
 soft         electrons  0.000000000000000E+000
 total        electrons   4.00077063285905     
 augmentation electrons   4.00077063285905     
 soft         electrons  0.000000000000000E+000
 total        electrons   4.00077063285905     
 augmentation electrons   4.00077063285905     
 soft         electrons  0.000000000000000E+000
 total        electrons   4.00077063285905     
 augmentation electrons   4.00077063285905     
 soft         electrons  0.000000000000000E+000
 total        electrons   4.00077063285905     
 entering main loop
       N       E                     dE             d eps       ncg     rms          rms(c)
DAV:   1     0.660490952266E+02    0.66049E+02   -0.33182E+03   704   0.712E+02
DAV:   2    -0.139135118439E+02   -0.79963E+02   -0.64839E+02  1080   0.139E+02
DAV:   3    -0.194392320958E+02   -0.55257E+01   -0.55257E+01   960   0.609E+01
DAV:   4    -0.194835885663E+02   -0.44356E-01   -0.44356E-01  1176   0.542E+00
DAV:   5    -0.194836060606E+02   -0.17494E-04   -0.17494E-04  1040   0.114E-01    0.721E+00
DAV:   6    -0.178686727508E+02    0.16149E+01   -0.62540E+00  1120   0.173E+01    0.267E+00
DAV:   7    -0.176744838603E+02    0.19419E+00   -0.19989E-01  1248   0.381E+00    0.149E+00
DAV:   8    -0.175818344102E+02    0.92649E-01   -0.19811E-01  1224   0.325E+00    0.257E-01
DAV:   9    -0.175746586230E+02    0.71758E-02   -0.36318E-03  1224   0.481E-01    0.849E-02
DAV:  10    -0.175723825474E+02    0.22761E-02   -0.12087E-03  1176   0.227E-01    0.570E-02
DAV:  11    -0.175714749709E+02    0.90758E-03   -0.19020E-03   968   0.230E-01    0.240E-02
DAV:  12    -0.175727562377E+02   -0.12813E-02   -0.21668E-04   960   0.828E-02    0.172E-02
DAV:  13    -0.175736192397E+02   -0.86300E-03   -0.14494E-04   872   0.659E-02    0.653E-03
DAV:  14    -0.175740605514E+02   -0.44131E-03   -0.82334E-05   976   0.405E-02    0.484E-03
DAV:  15    -0.175740846892E+02   -0.24138E-04   -0.49928E-06   944   0.162E-02
   1 F= -.17727834E+02 E0= -.17727834E+02  d E =-.390449E-15
 augmentation electrons  0.235800565447529     
 soft         electrons   7.76502576353775     
 total        electrons   8.00082632898528     
 augmentation electrons  0.235800565447529     
 soft         electrons   7.76502576353775     
 total        electrons   8.00082632898528     
 augmentation electrons  0.235800565447529     
 soft         electrons   7.76502576353775     
 total        electrons   8.00082632898528     
 augmentation electrons  0.235800565447529     
 soft         electrons   7.76502576353775     
 total        electrons   8.00082632898528     
 augmentation electrons  0.235800565447529     
 soft         electrons   7.76502576353775     
 total        electrons   8.00082632898528     
 augmentation electrons  0.235800565447529     
 soft         electrons   7.76502576353775     
 total        electrons   8.00082632898528     
 augmentation electrons  0.235800565447529     
 soft         electrons   7.76502576353775     
 total        electrons   8.00082632898528     
 augmentation electrons  0.235800565447529     
 soft         electrons   7.76502576353775     
 total        electrons   8.00082632898528     
