 running on    8 total cores
 distrk:  each k-point on    8 cores,    1 groups
 distr:  one band on    2 cores,    4 groups
 using from now: INCAR     
 vasp.5.4.4.18Apr17-6-g9f103f2a35 (build Feb 26 2018 15:04:24) complex          
  
 POSCAR found type information on POSCAR  Si
 POSCAR found :  1 types and       8 ions
 scaLAPACK will be used

 ----------------------------------------------------------------------------- 
|                                                                             |
|  ADVICE TO THIS USER RUNNING 'VASP/VAMP'   (HEAR YOUR MASTER'S VOICE ...):  |
|                                                                             |
|      You have a (more or less) 'small supercell' and for smaller cells      |
|      it is recommended  to use the reciprocal-space projection scheme!      |
|      The real space optimization is not  efficient for small cells and it   |
|      is also less accurate ...                                              |
|      Therefore set LREAL=.FALSE. in the  INCAR file                         |
|                                                                             |
 ----------------------------------------------------------------------------- 

 LDA part: xc-table for Pade appr. of Perdew
 POSCAR, INCAR and KPOINTS ok, starting setup
 FFT: planning ...
 WAVECAR not read
 charge-density read from file: unknown                                 
 entering main loop
       N       E                     dE             d eps       ncg     rms          rms(c)
DAV:   1    -0.603380728679E+03   -0.60338E+03   -0.20331E+04  1752   0.121E+03
DAV:   2    -0.912684720263E+03   -0.30930E+03   -0.28231E+03  2664   0.366E+02
DAV:   3    -0.943638056705E+03   -0.30953E+02   -0.28883E+02  2904   0.107E+02
DAV:   4    -0.945498860829E+03   -0.18608E+01   -0.18168E+01  2920   0.288E+01
DAV:   5    -0.945604839006E+03   -0.10598E+00   -0.10503E+00  2888   0.670E+00    0.491E+01
RMM:   6     0.403249486840E+03    0.13489E+04   -0.13735E+03  2890   0.200E+02    0.193E+01
RMM:   7     0.493714588046E+03    0.90465E+02   -0.30743E+03  2817   0.259E+02    0.218E+01
RMM:   8     0.267021428271E+03   -0.22669E+03   -0.27934E+03  2881   0.264E+02    0.189E+01
RMM:   9     0.291116620096E+03    0.24095E+02   -0.73797E+02  2854   0.146E+02    0.144E+01
RMM:  10     0.248203952997E+03   -0.42913E+02   -0.52867E+02  2891   0.981E+01    0.104E+01
RMM:  11     0.218066410920E+03   -0.30138E+02   -0.37180E+02  2890   0.704E+01    0.879E+00
RMM:  12     0.205732544117E+03   -0.12334E+02   -0.22071E+02  2900   0.541E+01    0.674E+00
RMM:  13     0.194253425441E+03   -0.11479E+02   -0.14499E+02  2890   0.435E+01    0.568E+00
RMM:  14     0.185518164377E+03   -0.87353E+01   -0.10603E+02  2893   0.380E+01    0.424E+00
RMM:  15    -0.623670214993E+02   -0.24789E+03   -0.26182E+03  2888   0.240E+02    0.222E+01
RMM:  16     0.221488248502E+02    0.84516E+02   -0.84119E+02  2874   0.120E+02    0.188E+01
RMM:  17     0.716513181473E+02    0.49502E+02   -0.45358E+02  2876   0.756E+01    0.148E+01
RMM:  18    -0.355175675244E+03   -0.42683E+03   -0.27515E+03  2845   0.267E+02    0.311E+01
RMM:  19    -0.648288935776E+03   -0.29311E+03   -0.16413E+03  2719   0.263E+02    0.397E+01
RMM:  20    -0.308635091806E+03    0.33965E+03   -0.14982E+03  2890   0.174E+02    0.357E+01
RMM:  21    -0.704225654790E+03   -0.39559E+03   -0.16870E+03  2403   0.286E+02    0.438E+01
RMM:  22    -0.305731918500E+03    0.39849E+03   -0.13174E+03  2882   0.153E+02    0.370E+01
RMM:  23    -0.118552246238E+03    0.18718E+03   -0.69331E+02  2847   0.924E+01    0.301E+01
RMM:  24    -0.606517613602E+03   -0.48797E+03   -0.23489E+03  2518   0.286E+02    0.404E+01
RMM:  25    -0.847359583451E+03   -0.24084E+03   -0.15926E+03  2191   0.280E+02    0.481E+01
RMM:  26    -0.444653535437E+03    0.40271E+03   -0.14025E+03  2756   0.158E+02    0.408E+01
RMM:  27    -0.220340477968E+03    0.22431E+03   -0.55760E+02  2336   0.844E+01    0.350E+01
RMM:  28    -0.104129280744E+03    0.11621E+03   -0.41912E+02  2443   0.602E+01    0.280E+01
RMM:  29    -0.529484689884E+03   -0.42536E+03   -0.22035E+03  2434   0.251E+02    0.400E+01
RMM:  30    -0.815491092390E+03   -0.28601E+03   -0.21873E+03  2254   0.325E+02    0.457E+01
RMM:  31    -0.443538160875E+03    0.37195E+03   -0.13447E+03  2665   0.156E+02    0.411E+01
RMM:  32    -0.222529937283E+03    0.22101E+03   -0.51304E+02  2266   0.827E+01    0.351E+01
RMM:  33    -0.632442074468E+03   -0.40991E+03   -0.20413E+03  2257   0.264E+02    0.441E+01
RMM:  34    -0.837471228060E+03   -0.20503E+03   -0.14128E+03  1872   0.267E+02    0.493E+01
RMM:  35    -0.437492756311E+03    0.39998E+03   -0.13424E+03  2675   0.156E+02    0.412E+01
RMM:  36    -0.786196067050E+03   -0.34870E+03   -0.19452E+03  1899   0.300E+02    0.482E+01
RMM:  37     0.115792403288E+04    0.19441E+04   -0.66244E+03  2896   0.494E+02    0.210E+01
RMM:  38     0.462112590296E+03   -0.69581E+03   -0.43608E+03  2882   0.342E+02    0.262E+01
RMM:  39     0.157728802143E+03   -0.30438E+03   -0.25390E+03  2893   0.247E+02    0.310E+01
RMM:  40    -0.480482229705E+02   -0.20578E+03   -0.16443E+03  2884   0.180E+02    0.361E+01
RMM:  41    -0.205613900894E+03   -0.15757E+03   -0.12404E+03  2883   0.156E+02    0.373E+01
RMM:  42    -0.382880287725E+03   -0.17727E+03   -0.12221E+03  2872   0.165E+02    0.386E+01
RMM:  43    -0.565672652770E+03   -0.18279E+03   -0.10430E+03  2880   0.176E+02    0.406E+01
RMM:  44    -0.694282614505E+03   -0.12861E+03   -0.74876E+02  2870   0.171E+02    0.422E+01
RMM:  45     0.503636144218E+03    0.11979E+04   -0.32110E+03  2884   0.374E+02    0.331E+01
RMM:  46     0.649287257267E+03    0.14565E+03   -0.35932E+03  2894   0.443E+02    0.275E+01
RMM:  47    -0.488552189067E+03   -0.11378E+04   -0.60053E+03  2888   0.596E+02    0.317E+01
RMM:  48    -0.685782963001E+03   -0.19723E+03   -0.15997E+03  2880   0.235E+02    0.391E+01
RMM:  49    -0.789987026017E+03   -0.10420E+03   -0.65545E+02  2885   0.154E+02    0.434E+01
RMM:  50    -0.878097098179E+03   -0.88110E+02   -0.52479E+02  2893   0.129E+02    0.463E+01
RMM:  51    -0.842217622082E+03    0.35879E+02   -0.43922E+02  2875   0.117E+02    0.464E+01
RMM:  52    -0.911387872710E+03   -0.69170E+02   -0.42513E+02  2893   0.950E+01    0.483E+01
RMM:  53    -0.957446482641E+03   -0.46059E+02   -0.34202E+02  2808   0.852E+01    0.497E+01
RMM:  54    -0.993103462054E+03   -0.35657E+02   -0.31686E+02  2775   0.639E+01    0.507E+01
RMM:  55    -0.101099913402E+04   -0.17896E+02   -0.17513E+02  2556   0.447E+01    0.515E+01
RMM:  56     0.148687265083E+03    0.11597E+04   -0.29297E+03  2894   0.336E+02    0.406E+01
RMM:  57    -0.590787841507E+02   -0.20777E+03   -0.14272E+03  2894   0.169E+02    0.416E+01
RMM:  58    -0.198333051666E+03   -0.13925E+03   -0.39960E+03  2878   0.415E+02    0.392E+01
RMM:  59     0.577168889951E+03    0.77550E+03   -0.50451E+03  2888   0.607E+02    0.205E+01
RMM:  60     0.954315659568E+01   -0.56763E+03   -0.36932E+03  2882   0.337E+02    0.339E+01
RMM:  61    -0.192257405872E+03   -0.20180E+03   -0.21446E+03  2884   0.213E+02    0.397E+01
RMM:  62    -0.262850443037E+03   -0.70593E+02   -0.12927E+03  2883   0.146E+02    0.394E+01
RMM:  63    -0.274955380569E+03   -0.12105E+02   -0.91906E+02  2894   0.138E+02    0.389E+01
RMM:  64    -0.291440426844E+03   -0.16485E+02   -0.68782E+02  2890   0.125E+02    0.388E+01
RMM:  65    -0.374352832756E+03   -0.82912E+02   -0.48527E+02  2886   0.985E+01    0.398E+01
RMM:  66    -0.415322304351E+03   -0.40969E+02   -0.38307E+02  2879   0.101E+02    0.400E+01
RMM:  67    -0.449856381100E+03   -0.34534E+02   -0.37102E+02  2913   0.104E+02    0.405E+01
RMM:  68    -0.508222718026E+03   -0.58366E+02   -0.31438E+02  2879   0.963E+01    0.417E+01
RMM:  69    -0.552446095290E+03   -0.44223E+02   -0.26037E+02  2873   0.862E+01    0.427E+01
RMM:  70    -0.535912301164E+03    0.16534E+02   -0.23623E+02  2827   0.870E+01    0.424E+01
RMM:  71    -0.571489574031E+03   -0.35577E+02   -0.17126E+02  2796   0.613E+01    0.430E+01
RMM:  72    -0.923204592626E+02    0.47917E+03   -0.31819E+03  2896   0.353E+02    0.479E+01
RMM:  73     0.152173237240E+03    0.24449E+03   -0.16455E+03  2882   0.221E+02    0.215E+01
RMM:  74     0.901991434359E+02   -0.61974E+02   -0.15068E+03  2776   0.167E+02    0.185E+01
RMM:  75    -0.217398012711E+01   -0.92373E+02   -0.10191E+03  2695   0.119E+02    0.205E+01
RMM:  76    -0.158087075730E+03   -0.15591E+03   -0.33001E+03  2890   0.327E+02    0.248E+01
RMM:  77    -0.511063003537E+03   -0.35298E+03   -0.34445E+03  2876   0.435E+02    0.325E+01
RMM:  78     0.523512915845E+03    0.10346E+04   -0.32746E+03  2884   0.325E+02    0.138E+01
RMM:  79     0.156504242464E+03   -0.36701E+03   -0.24819E+03  2892   0.238E+02    0.204E+01
RMM:  80    -0.708922719869E+02   -0.22740E+03   -0.18584E+03  2884   0.185E+02    0.300E+01
RMM:  81    -0.273348475021E+03   -0.20246E+03   -0.15477E+03  2884   0.186E+02    0.343E+01
RMM:  82    -0.390596488746E+03   -0.11725E+03   -0.95084E+02  2886   0.129E+02    0.367E+01
RMM:  83    -0.499305303652E+03   -0.10871E+03   -0.84565E+02  2893   0.128E+02    0.387E+01
RMM:  84    -0.623409202534E+03   -0.12410E+03   -0.68414E+02  2889   0.137E+02    0.415E+01
RMM:  85    -0.725341827885E+03   -0.10193E+03   -0.50737E+02  2890   0.133E+02    0.442E+01
RMM:  86    -0.810449544080E+03   -0.85108E+02   -0.43906E+02  2895   0.124E+02    0.462E+01
RMM:  87    -0.891418664991E+03   -0.80969E+02   -0.42728E+02  2886   0.112E+02    0.482E+01
RMM:  88    -0.954262641764E+03   -0.62844E+02   -0.39213E+02  2859   0.967E+01    0.497E+01
RMM:  89    -0.100390113311E+04   -0.49638E+02   -0.35509E+02  2809   0.786E+01    0.510E+01
RMM:  90    -0.103253277175E+04   -0.28632E+02   -0.21763E+02  2620   0.558E+01    0.520E+01
RMM:  91    -0.105151971365E+04   -0.18987E+02   -0.12264E+02  2434   0.356E+01    0.524E+01
RMM:  92     0.152426641116E+03    0.12039E+04   -0.30668E+03  2892   0.341E+02    0.433E+01
RMM:  93     0.137505537576E+03   -0.14921E+02   -0.46170E+03  2890   0.488E+02    0.359E+01
RMM:  94     0.811539479414E+02   -0.56352E+02   -0.24262E+03  2889   0.277E+02    0.263E+01
RMM:  95     0.883847064429E+02    0.72308E+01   -0.97456E+02  2898   0.120E+02    0.178E+01
RMM:  96    -0.226384797379E+03   -0.31477E+03   -0.30874E+03  2900   0.314E+02    0.310E+01
RMM:  97    -0.506206276313E+03   -0.27982E+03   -0.23041E+03  2883   0.332E+02    0.361E+01
RMM:  98    -0.131604768707E+03    0.37460E+03   -0.15169E+03  2886   0.189E+02    0.295E+01
RMM:  99    -0.593598322383E+03   -0.46199E+03   -0.17688E+03  2710   0.292E+02    0.387E+01
RMM: 100    -0.811732092997E+03   -0.21813E+03   -0.11473E+03  2779   0.234E+02

 ----------------------------------------------------------------------------- 
|                                                                             |
|           W    W    AA    RRRRR   N    N  II  N    N   GGGG   !!!           |
|           W    W   A  A   R    R  NN   N  II  NN   N  G    G  !!!           |
|           W    W  A    A  R    R  N N  N  II  N N  N  G       !!!           |
|           W WW W  AAAAAA  RRRRR   N  N N  II  N  N N  G  GGG   !            |
|           WW  WW  A    A  R   R   N   NN  II  N   NN  G    G                |
|           W    W  A    A  R    R  N    N  II  N    N   GGGG   !!!           |
|                                                                             |
|      Your highest band is occupied at some k-points! Unless you are         |
|      performing a calculation for an insulator or semiconductor, without    |
|      unoccupied bands, you have included TOO FEW BANDS!! Please increase    |
|      the parameter NBANDS in file INCAR to ensure that the highest band     |
|      is unoccupied at all k-points. It is always recommended to             |
|      include a few unoccupied bands to accelerate the convergence of        |
|      molecular dynamics runs (even for insulators or semiconductors).       |
|      Because the presence of unoccupied bands improves wavefunction         |
|      prediction, and helps to suppress 'band-crossings.'                    |
|                                                                             |
 ----------------------------------------------------------------------------- 

   1 F= -.81419464E+03 E0= -.81419275E+03  d E =-.814195E+03
 curvature:   0.00 expect dE= 0.000E+00 dE for cont linesearch  0.000E+00
 trial: gam= 0.00000 g(F)=  0.906E+03 g(S)=  0.000E+00 ort = 0.000E+00 (trialstep = 0.100E+01)
 search vector abs. value=  0.906E+03
 bond charge predicted
       N       E                     dE             d eps       ncg     rms          rms(c)
DAV:   1    -0.160012376665E+03    0.43359E+03   -0.16042E+04  3192   0.335E+02    0.297E+01
RMM:   2     0.438590639680E+02    0.20387E+03   -0.11620E+03  2890   0.147E+02    0.865E+00
RMM:   3    -0.414460005574E+01   -0.48004E+02   -0.52137E+02  2895   0.693E+01    0.968E+00
RMM:   4     0.603596552625E+01    0.10181E+02   -0.19986E+02  2743   0.410E+01    0.644E+00
RMM:   5     0.514409287162E+01   -0.89187E+00   -0.65583E+01  2840   0.230E+01    0.503E+00
RMM:   6     0.568807214187E+01    0.54398E+00   -0.13060E+01  2777   0.138E+01    0.459E+00
RMM:   7     0.295044368708E+01   -0.27376E+01   -0.34431E+01  2601   0.166E+01    0.503E+00
RMM:   8     0.131318926877E+01   -0.16373E+01   -0.10885E+01  2674   0.110E+01    0.513E+00
RMM:   9     0.395801102464E+01    0.26448E+01   -0.66244E+00  2517   0.724E+00    0.198E+00
RMM:  10     0.394610969858E+01   -0.11901E-01   -0.23536E+00  2681   0.397E+00    0.132E+00
RMM:  11     0.385764403673E+01   -0.88466E-01   -0.23436E+00  2654   0.265E+00    0.487E-01
RMM:  12     0.372260802113E+01   -0.13504E+00   -0.12528E+00  2684   0.152E+00    0.363E-01
RMM:  13     0.367578714618E+01   -0.46821E-01   -0.57815E-01  2600   0.995E-01    0.165E-01
RMM:  14     0.367000125245E+01   -0.57859E-02   -0.28794E-02  2538   0.652E-01    0.172E-01
RMM:  15     0.365522641481E+01   -0.14775E-01   -0.12380E-01  2590   0.459E-01    0.134E-01
RMM:  16     0.365059617140E+01   -0.46302E-02   -0.45414E-02  2464   0.465E-01    0.707E-02
RMM:  17     0.365223408688E+01    0.16379E-02    0.49132E-02  2345   0.292E-01    0.614E-02
RMM:  18     0.364506450165E+01   -0.71696E-02   -0.37279E-02  1778   0.202E-01    0.854E-02
RMM:  19     0.363590338199E+01   -0.91611E-02    0.15561E-02  1791   0.165E-01    0.930E-02
RMM:  20     0.362834261075E+01   -0.75608E-02   -0.57868E-02  1658   0.149E-01    0.980E-02
RMM:  21     0.362836367447E+01    0.21064E-04    0.37460E-03  1485   0.124E-01    0.101E-01
RMM:  22     0.362836624299E+01    0.25685E-05    0.18916E-03  1412   0.101E-01    0.107E-01
RMM:  23     0.362887705544E+01    0.51081E-03    0.76052E-03  2124   0.119E-01    0.122E-01
RMM:  24     0.362971645324E+01    0.83940E-03    0.93342E-03  2308   0.136E-01    0.137E-01
RMM:  25     0.363046232607E+01    0.74587E-03    0.21676E-03  2318   0.139E-01    0.120E-01
RMM:  26     0.363053959784E+01    0.77272E-04    0.54099E-03  2524   0.191E-01    0.158E-01
RMM:  27     0.363221686418E+01    0.16773E-02    0.91769E-03  2200   0.115E-01    0.134E-01
RMM:  28     0.363330667914E+01    0.10898E-02    0.39894E-03  2329   0.127E-01    0.103E-01
RMM:  29     0.363349622595E+01    0.18955E-03    0.25206E-03  1628   0.727E-02    0.105E-01
RMM:  30     0.363402511430E+01    0.52889E-03    0.35606E-03  1606   0.663E-02    0.961E-02
RMM:  31     0.363382613730E+01   -0.19898E-03    0.16291E-03  1445   0.577E-02    0.908E-02
RMM:  32     0.363450473452E+01    0.67860E-03    0.29160E-02  1328   0.588E-02    0.956E-02
RMM:  33     0.363445536539E+01   -0.49369E-04    0.79223E-04  1237   0.440E-02
   2 F= 0.92600920E+00 E0= 0.92899644E+00  d E =0.815121E+03
 trial-energy change:  815.120650  1 .order -426.226115 -905.705024   53.252795
 step:   0.9445(harm=  0.9445)  dis= 3.32749  next Energy= -1241.899371 (dE=-0.428E+03)
 bond charge predicted
       N       E                     dE             d eps       ncg     rms          rms(c)
DAV:   1    -0.310061639829E+02   -0.34641E+02   -0.32514E+02  3152   0.284E+01    0.192E+00
RMM:   2    -0.328187394879E+02   -0.18126E+01   -0.17639E+01  1759   0.147E+01    0.270E+00
RMM:   3    -0.319126567223E+02    0.90608E+00   -0.24129E+00  1736   0.469E+00    0.715E-01
RMM:   4    -0.319226828896E+02   -0.10026E-01   -0.30887E-01  1835   0.157E+00    0.348E-01
RMM:   5    -0.319190499647E+02    0.36329E-02   -0.24724E-02  1766   0.525E-01    0.138E-01
RMM:   6    -0.319187240510E+02    0.32591E-03   -0.39520E-03  1726   0.170E-01    0.260E-02
RMM:   7    -0.319187759170E+02   -0.51866E-04   -0.78187E-04  1229   0.543E-02
   3 F= -.34618543E+02 E0= -.34614583E+02  d E =0.779576E+03
 curvature:  -0.47 expect dE=-0.247E+01 dE for cont linesearch -0.173E+01
 ZBRENT: interpolating
 opt :   0.8881  next Energy=   -36.240968 (dE= 0.778E+03)
 bond charge predicted
       N       E                     dE             d eps       ncg     rms          rms(c)
DAV:   1    -0.351051516643E+02   -0.31864E+01   -0.32041E+01  1848   0.281E+01    0.196E+00
RMM:   2    -0.400428966370E+02   -0.49377E+01   -0.28889E+01  1757   0.141E+01    0.611E+00
RMM:   3    -0.358555945409E+02    0.41873E+01   -0.18455E+00  1752   0.484E+00    0.323E+00
RMM:   4    -0.346300289922E+02    0.12256E+01   -0.32023E+00  1746   0.407E+00    0.673E-01
RMM:   5    -0.346303770564E+02   -0.34806E-03   -0.56230E-01  1810   0.171E+00    0.319E-01
RMM:   6    -0.346575485813E+02   -0.27172E-01   -0.11815E-01  1800   0.825E-01    0.472E-01
RMM:   7    -0.346287249714E+02    0.28824E-01   -0.81474E-02  1731   0.721E-01    0.752E-02
RMM:   8    -0.346301116228E+02   -0.13867E-02   -0.87094E-03  1712   0.197E-01    0.112E-01
RMM:   9    -0.346284646163E+02    0.16470E-02   -0.32167E-03  1648   0.146E-01    0.207E-02
RMM:  10    -0.346285309713E+02   -0.66355E-04   -0.10045E-03  1465   0.715E-02    0.223E-02
RMM:  11    -0.346284618429E+02    0.69128E-04   -0.15054E-04  1121   0.404E-02
   4 F= -.37321209E+02 E0= -.37318380E+02  d E =0.776873E+03
 curvature:  -0.44 expect dE=-0.115E+01 dE for cont linesearch -0.890E+00
 ZBRENT: interpolating
 opt :   0.7344  next Energy=   -40.742124 (dE= 0.773E+03)
 bond charge predicted
       N       E                     dE             d eps       ncg     rms          rms(c)
DAV:   1    -0.408502650626E+02   -0.62217E+01   -0.23010E+02  1808   0.708E+01    0.604E+00
RMM:   2    -0.674485720805E+02   -0.26598E+02   -0.24106E+02  2017   0.437E+01    0.113E+01
RMM:   3    -0.401924016208E+02    0.27256E+02   -0.26280E+01  1741   0.164E+01    0.510E+00
RMM:   4    -0.372368837977E+02    0.29555E+01   -0.10061E+01  1744   0.755E+00    0.131E+00
RMM:   5    -0.372474776853E+02   -0.10594E-01   -0.12049E+00  1823   0.279E+00    0.572E-01
RMM:   6    -0.372489959581E+02   -0.15183E-02   -0.58759E-02  1762   0.907E-01    0.200E-01
RMM:   7    -0.372485783124E+02    0.41765E-03   -0.49294E-03  1814   0.242E-01    0.124E-01
RMM:   8    -0.372478542200E+02    0.72409E-03   -0.10595E-02  1734   0.247E-01    0.511E-02
RMM:   9    -0.372477110993E+02    0.14312E-03   -0.49954E-04  1358   0.755E-02    0.434E-02
RMM:  10    -0.372474462779E+02    0.26482E-03   -0.66501E-04  1432   0.648E-02    0.513E-03
RMM:  11    -0.372474480087E+02   -0.17307E-05   -0.33782E-05   931   0.199E-02
   5 F= -.40105799E+02 E0= -.40103370E+02  d E =0.774089E+03
 curvature:  -1.71 expect dE=-0.118E+00 dE for cont linesearch -0.957E-01
 ZBRENT: bisectioning
 opt :   0.3672  next Energy=   -27.165072 (dE= 0.787E+03)
 bond charge predicted
       N       E                     dE             d eps       ncg     rms          rms(c)
DAV:   1    -0.136236795460E+03   -0.98989E+02   -0.27734E+03  2648   0.179E+02    0.218E+01
RMM:   2    -0.127047914327E+01    0.13497E+03   -0.23292E+03  2889   0.242E+02    0.210E+01
RMM:   3    -0.141080938776E+03   -0.13981E+03   -0.17560E+03  2300   0.212E+02    0.201E+01
RMM:   4    -0.433934978823E+02    0.97687E+02   -0.10863E+03  2275   0.161E+02    0.150E+01
RMM:   5    -0.153133599290E+03   -0.10974E+03   -0.24923E+03  2716   0.259E+02    0.189E+01
RMM:   6    -0.192192612339E+03   -0.39059E+02   -0.37264E+03  2892   0.356E+02    0.234E+01
RMM:   7     0.993182316669E+02    0.29151E+03   -0.13111E+03  2858   0.161E+02    0.115E+01
RMM:   8    -0.203272574968E+03   -0.30259E+03   -0.11079E+03  2707   0.125E+02    0.251E+01
RMM:   9    -0.358823520227E+03   -0.15555E+03   -0.63906E+02  2402   0.992E+01    0.316E+01
RMM:  10    -0.759078046376E+03   -0.40025E+03   -0.17710E+03  2424   0.261E+02    0.375E+01
RMM:  11    -0.985660929990E+03   -0.22658E+03   -0.14397E+03  2349   0.267E+02    0.423E+01
RMM:  12    -0.103752389110E+04   -0.51863E+02   -0.46200E+02  2459   0.102E+02    0.485E+01
RMM:  13     0.148184076578E+04    0.25194E+04   -0.50172E+03  2899   0.377E+02    0.289E+01
RMM:  14     0.793529675340E+03   -0.68831E+03   -0.19957E+03  2707   0.283E+02    0.378E+01
RMM:  15     0.569859703347E+03   -0.22367E+03   -0.28169E+03  2887   0.343E+02    0.233E+01
RMM:  16     0.661073816301E+02   -0.50375E+03   -0.11170E+03  2879   0.172E+02    0.310E+01
RMM:  17    -0.198478519378E+03   -0.26459E+03   -0.21711E+03  2820   0.255E+02    0.346E+01
RMM:  18     0.127725683394E+03    0.32620E+03   -0.40049E+03  2867   0.378E+02    0.355E+01
RMM:  19     0.462966674786E+03    0.33524E+03   -0.15493E+03  2850   0.196E+02    0.255E+01
RMM:  20    -0.516216307482E+03   -0.97918E+03   -0.17699E+03  2613   0.204E+02    0.421E+01
RMM:  21     0.153489844835E+03    0.66971E+03   -0.94998E+02  2890   0.110E+02    0.290E+01
RMM:  22     0.225537274931E+03    0.72047E+02   -0.14664E+03  2896   0.200E+02    0.172E+01
RMM:  23    -0.185477730338E+03   -0.41102E+03   -0.12897E+03  2614   0.150E+02    0.359E+01
RMM:  24    -0.481641221229E+03   -0.29616E+03   -0.10557E+03  2051   0.174E+02    0.428E+01
RMM:  25     0.206746617352E+03    0.68839E+03   -0.26175E+03  2869   0.274E+02    0.388E+01
RMM:  26     0.508326364293E+03    0.30158E+03   -0.23704E+03  2839   0.251E+02    0.239E+01
RMM:  27    -0.124940357691E+03   -0.63327E+03   -0.88407E+02  2376   0.121E+02    0.339E+01
RMM:  28    -0.461361182804E+03   -0.33642E+03   -0.10136E+03  1820   0.167E+02    0.426E+01
RMM:  29    -0.622733702663E+03   -0.16137E+03   -0.77947E+02  1843   0.180E+02    0.460E+01
RMM:  30    -0.688740495540E+03   -0.66007E+02   -0.25042E+02  1780   0.112E+02    0.497E+01
RMM:  31    -0.726470001621E+03   -0.37730E+02   -0.18493E+02  1882   0.990E+01    0.513E+01
RMM:  32    -0.732336435130E+03   -0.58664E+01   -0.28427E+01  2317   0.347E+01    0.526E+01
RMM:  33    -0.735419617443E+03   -0.30832E+01   -0.25811E+00  2248   0.814E+00    0.531E+01
RMM:  34    -0.736430752424E+03   -0.10111E+01   -0.16376E+00  2110   0.323E+00    0.533E+01
RMM:  35    -0.736730498871E+03   -0.29975E+00   -0.44302E-01  2016   0.194E+00    0.535E+01
RMM:  36    -0.736349615309E+03    0.38088E+00   -0.21216E-01  1922   0.265E+00    0.533E+01
RMM:  37    -0.736580008094E+03   -0.23039E+00   -0.20415E-02  1866   0.764E-01    0.533E+01
RMM:  38    -0.739549572896E+03   -0.29696E+01   -0.30037E-01  1906   0.282E+00    0.537E+01
RMM:  39    -0.746618020356E+03   -0.70684E+01   -0.49742E-01  2028   0.342E+00    0.542E+01
RMM:  40    -0.762252842667E+03   -0.15635E+02   -0.36581E+00  1851   0.973E+00    0.556E+01
RMM:  41    -0.764410132737E+03   -0.21573E+01   -0.61513E-01  2091   0.450E+00    0.559E+01
RMM:  42    -0.784818458100E+03   -0.20408E+02   -0.41580E+00  1911   0.112E+01    0.574E+01
RMM:  43    -0.779696348869E+03    0.51221E+01   -0.55572E-01  1835   0.504E+00    0.574E+01
RMM:  44    -0.780006784491E+03   -0.31044E+00   -0.12384E-01  1938   0.180E+00    0.575E+01
RMM:  45    -0.756121031405E+03    0.23886E+02   -0.22837E+00  1747   0.112E+01    0.568E+01
RMM:  46    -0.734971002047E+03    0.21150E+02   -0.99922E-01  1833   0.660E+00    0.562E+01
RMM:  47    -0.721955790077E+02    0.66278E+03   -0.22209E+03  2892   0.258E+02    0.368E+01
RMM:  48    -0.280652836731E+03   -0.20846E+03   -0.12323E+03  2395   0.172E+02    0.396E+01
RMM:  49     0.143170391139E+03    0.42382E+03   -0.15496E+03  2888   0.214E+02    0.291E+01
RMM:  50     0.659167668888E+02   -0.77254E+02   -0.22445E+03  2714   0.279E+02    0.209E+01
RMM:  51    -0.185622255240E+03   -0.25154E+03   -0.24869E+03  2596   0.286E+02    0.267E+01
RMM:  52    -0.261028263445E+03   -0.75406E+02   -0.10488E+03  2757   0.126E+02    0.303E+01
RMM:  53    -0.235664939088E+03    0.25363E+02   -0.53567E+02  2607   0.829E+01    0.313E+01
RMM:  54    -0.180908412827E+03    0.54757E+02   -0.31099E+02  2589   0.670E+01    0.302E+01
RMM:  55    -0.183259500866E+03   -0.23511E+01   -0.20233E+02  2748   0.420E+01    0.301E+01
RMM:  56    -0.167094372954E+03    0.16165E+02   -0.15495E+02  2688   0.348E+01    0.293E+01
RMM:  57    -0.272587677607E+03   -0.10549E+03   -0.16906E+02  2630   0.411E+01    0.333E+01
RMM:  58    -0.223236666475E+03    0.49351E+02   -0.12743E+02  2630   0.358E+01    0.321E+01
RMM:  59    -0.135710999747E+03    0.87526E+02   -0.15353E+02  2582   0.390E+01    0.272E+01
RMM:  60    -0.781054687279E+02    0.57606E+02   -0.20388E+02  2480   0.490E+01    0.215E+01
RMM:  61    -0.937558684128E+02   -0.15650E+02   -0.88514E+01  2716   0.262E+01    0.212E+01
RMM:  62    -0.538350352571E+02    0.39921E+02   -0.13266E+02  2375   0.290E+01    0.160E+01
RMM:  63    -0.129100640926E+03   -0.75266E+02   -0.99905E+01  2465   0.347E+01    0.224E+01
RMM:  64    -0.924589523782E+02    0.36642E+02   -0.43132E+01  2449   0.214E+01    0.191E+01
RMM:  65    -0.780676989636E+02    0.14391E+02   -0.44011E+01  2402   0.172E+01    0.174E+01
RMM:  66    -0.799591556941E+02   -0.18915E+01   -0.24255E+01  2527   0.115E+01    0.175E+01
RMM:  67    -0.901174775444E+02   -0.10158E+02   -0.17240E+01  2286   0.889E+00    0.184E+01
RMM:  68    -0.832530969300E+02    0.68644E+01   -0.10187E+01  2158   0.609E+00    0.178E+01
RMM:  69    -0.713608311888E+02    0.11892E+02   -0.98216E+00  2057   0.825E+00    0.165E+01
RMM:  70    -0.736458616264E+02   -0.22850E+01   -0.12989E+00  2223   0.483E+00    0.166E+01
RMM:  71    -0.748566576380E+02   -0.12108E+01   -0.17603E-01  2142   0.252E+00    0.167E+01
RMM:  72    -0.492038869504E+02    0.25653E+02   -0.25983E+02  2013   0.396E+01    0.158E+01
RMM:  73    -0.439168709377E+02    0.52870E+01   -0.31484E+01  1830   0.184E+01    0.132E+01
RMM:  74    -0.486079925593E+02   -0.46911E+01   -0.20453E+01  1883   0.106E+01    0.129E+01
RMM:  75    -0.451959529738E+02    0.34120E+01   -0.25146E+00  1826   0.452E+00    0.124E+01
RMM:  76    -0.479850261517E+02   -0.27891E+01   -0.25389E+00  1766   0.460E+00    0.124E+01
RMM:  77    -0.428510055845E+02    0.51340E+01   -0.73085E+01  1756   0.215E+01    0.141E+01
RMM:  78    -0.421229225679E+02    0.72808E+00   -0.26929E+00  1810   0.626E+00    0.139E+01
RMM:  79    -0.421335861965E+02   -0.10664E-01   -0.67069E+00  1745   0.754E+00    0.127E+01
RMM:  80    -0.426072817150E+02   -0.47370E+00   -0.37178E+00  1773   0.529E+00    0.121E+01
RMM:  81    -0.428724575049E+02   -0.26518E+00   -0.56658E-01  1851   0.227E+00    0.119E+01
RMM:  82    -0.452524809222E+02   -0.23800E+01   -0.13065E+00  1755   0.329E+00    0.121E+01
RMM:  83    -0.471616758096E+02   -0.19092E+01   -0.10129E+00  1780   0.281E+00    0.123E+01
RMM:  84    -0.489073578162E+02   -0.17457E+01   -0.66879E-01  1787   0.238E+00    0.124E+01
RMM:  85    -0.530497851673E+02   -0.41424E+01   -0.20173E+00  1774   0.400E+00    0.128E+01
RMM:  86    -0.544331586265E+02   -0.13834E+01   -0.52582E-01  1867   0.207E+00    0.130E+01
RMM:  87    -0.475542464805E+02    0.68789E+01   -0.95724E+01  1762   0.241E+01    0.150E+01
RMM:  88    -0.471625209773E+02    0.39173E+00   -0.47465E+00  1816   0.698E+00    0.151E+01
RMM:  89    -0.453762928955E+02    0.17862E+01   -0.97333E-01  1748   0.310E+00    0.144E+01
RMM:  90    -0.448855768846E+02    0.49072E+00   -0.41987E-01  1758   0.170E+00    0.141E+01
RMM:  91    -0.449037290609E+02   -0.18152E-01   -0.30585E-02  1849   0.559E-01    0.141E+01
RMM:  92    -0.226108308358E+03   -0.18120E+03   -0.15416E+03  2478   0.169E+02    0.201E+01
RMM:  93    -0.531639559407E+03   -0.30553E+03   -0.27469E+03  2672   0.293E+02    0.266E+01
RMM:  94    -0.143641191146E+03    0.38800E+03   -0.26051E+03  2881   0.249E+02    0.161E+01
RMM:  95    -0.296454337720E+02    0.11400E+03   -0.70407E+02  2398   0.114E+02    0.663E+00
RMM:  96    -0.133920999813E+03   -0.10428E+03   -0.45461E+02  2343   0.688E+01    0.197E+01
RMM:  97    -0.201727995198E+03   -0.67807E+02   -0.20376E+02  2091   0.479E+01    0.264E+01
RMM:  98    -0.259766762005E+03   -0.58039E+02   -0.12214E+02  1939   0.434E+01    0.302E+01
RMM:  99    -0.245160960824E+03    0.14606E+02   -0.24025E+01  2295   0.161E+01    0.311E+01
RMM: 100    -0.240277436239E+03    0.48835E+01   -0.39862E+00  2052   0.474E+00
   6 F= -.24352333E+03 E0= -.24352103E+03  d E =0.570671E+03
 curvature: 230.94 expect dE= 0.627E+05 dE for cont linesearch  0.118E+05
 ZBRENT: interpolating
 opt :   0.7226  next Energy=   -40.147760 (dE= 0.774E+03)
 bond charge predicted
       N       E                     dE             d eps       ncg     rms          rms(c)
DAV:   1    -0.490225533820E+03   -0.24506E+03   -0.27319E+03  3000   0.190E+02    0.338E+01
RMM:   2     0.191925807212E+03    0.68215E+03   -0.14597E+03  2882   0.180E+02    0.125E+01
RMM:   3     0.117876149657E+03   -0.74050E+02   -0.11076E+03  2916   0.139E+02    0.129E+01
RMM:   4     0.117808865934E+03   -0.67284E-01   -0.43767E+02  2906   0.867E+01    0.825E+00
RMM:   5     0.112812020502E+03   -0.49968E+01   -0.30940E+02  2900   0.597E+01    0.483E+00
RMM:   6     0.100027221754E+03   -0.12785E+02   -0.19300E+02  2890   0.440E+01    0.366E+00
RMM:   7     0.833826810852E+02   -0.16645E+02   -0.19663E+02  2877   0.401E+01    0.260E+00
RMM:   8     0.685397688728E+02   -0.14843E+02   -0.11369E+02  2870   0.340E+01    0.535E+00
RMM:   9     0.618338571430E+02   -0.67059E+01   -0.64347E+01  2882   0.278E+01    0.703E+00
RMM:  10     0.564953984225E+02   -0.53385E+01   -0.51596E+01  2889   0.236E+01    0.816E+00
RMM:  11     0.520920761628E+02   -0.44033E+01   -0.40270E+01  2883   0.203E+01    0.919E+00
RMM:  12     0.517790788893E+02   -0.31300E+00   -0.25212E+01  2884   0.176E+01    0.946E+00
RMM:  13     0.522785967773E+02    0.49952E+00   -0.20509E+01  2887   0.153E+01    0.963E+00
RMM:  14     0.558616380700E+02    0.35830E+01   -0.25220E+01  2877   0.144E+01    0.888E+00
RMM:  15     0.587628804686E+02    0.29012E+01   -0.25430E+01  2877   0.137E+01    0.793E+00
RMM:  16     0.609472945730E+02    0.21844E+01   -0.33032E+01  2890   0.136E+01    0.657E+00
RMM:  17     0.596488003108E+02   -0.12985E+01   -0.56033E+00  2838   0.118E+01    0.665E+00
RMM:  18     0.565853211013E+02   -0.30635E+01   -0.17118E+01  2844   0.127E+01    0.686E+00
RMM:  19     0.596769473128E+02    0.30916E+01   -0.24955E+01  2861   0.118E+01    0.575E+00
RMM:  20     0.596720547097E+02   -0.48926E-02   -0.66674E+00  2878   0.986E+00    0.565E+00
RMM:  21     0.590596348034E+02   -0.61242E+00   -0.62058E+00  2859   0.838E+00    0.573E+00
RMM:  22     0.584625624470E+02   -0.59707E+00   -0.37672E+00  2869   0.743E+00    0.588E+00
RMM:  23     0.577192303469E+02   -0.74333E+00   -0.38947E+00  2856   0.663E+00    0.606E+00
RMM:  24     0.577076348962E+02   -0.11595E-01   -0.35066E+00  2843   0.618E+00    0.608E+00
RMM:  25     0.572294951697E+02   -0.47814E+00   -0.37860E+00  2843   0.567E+00    0.618E+00
RMM:  26     0.567296075586E+02   -0.49989E+00   -0.34888E+00  2888   0.527E+00    0.629E+00
RMM:  27     0.563586040286E+02   -0.37100E+00   -0.35237E+00  2820   0.495E+00    0.637E+00
RMM:  28     0.562479193834E+02   -0.11068E+00   -0.23331E+00  2857   0.464E+00    0.642E+00
RMM:  29     0.560622342383E+02   -0.18569E+00   -0.18539E+00  2853   0.435E+00    0.646E+00
RMM:  30     0.558858318555E+02   -0.17640E+00   -0.18118E+00  2864   0.410E+00    0.651E+00
RMM:  31     0.557057244400E+02   -0.18011E+00   -0.15327E+00  2769   0.391E+00    0.656E+00
RMM:  32     0.555430516308E+02   -0.16267E+00   -0.18204E+00  2851   0.375E+00    0.660E+00
RMM:  33     0.557523594024E+02    0.20931E+00   -0.21256E+00  2854   0.369E+00    0.655E+00
RMM:  34     0.552680893116E+02   -0.48427E+00   -0.12997E+00  2788   0.349E+00    0.664E+00
RMM:  35     0.534213354219E+02   -0.18468E+01   -0.42546E+00  2803   0.403E+00    0.711E+00
RMM:  36     0.536240479495E+02    0.20271E+00    0.50487E-01  2819   0.348E+00    0.714E+00
RMM:  37     0.535574844606E+02   -0.66563E-01   -0.13705E+00  2839   0.313E+00    0.717E+00
RMM:  38     0.531184526522E+02   -0.43903E+00   -0.16804E+00  2887   0.312E+00    0.730E+00
RMM:  39     0.532535441430E+02    0.13509E+00   -0.83068E-01  2813   0.293E+00    0.731E+00
RMM:  40     0.534252928627E+02    0.17175E+00   -0.84133E-01  2847   0.279E+00    0.729E+00
RMM:  41     0.525927224735E+02   -0.83257E+00   -0.16359E+00  2819   0.290E+00    0.748E+00
RMM:  42     0.535949255294E+02    0.10022E+01   -0.54616E-01  2787   0.305E+00    0.730E+00
RMM:  43     0.560310056726E+02    0.24361E+01   -0.44696E+00  2789   0.481E+00    0.659E+00
RMM:  44     0.562264910018E+02    0.19549E+00    0.19894E+00  2825   0.360E+00    0.666E+00
RMM:  45     0.562132481973E+02   -0.13243E-01   -0.45305E-01  2851   0.287E+00    0.665E+00
RMM:  46     0.562929370921E+02    0.79689E-01    0.77504E-02  2857   0.263E+00    0.661E+00
RMM:  47     0.588435092403E+02    0.25506E+01   -0.58646E+00  2800   0.578E+00    0.564E+00
RMM:  48     0.582357040612E+02   -0.60781E+00    0.17105E+00  2736   0.390E+00    0.585E+00
RMM:  49     0.584237149141E+02    0.18801E+00    0.53876E-01  2814   0.286E+00    0.587E+00
RMM:  50     0.586912398394E+02    0.26752E+00   -0.94546E-01  2892   0.277E+00    0.566E+00
RMM:  51     0.594800204946E+02    0.78878E+00   -0.36149E+00  2874   0.386E+00    0.507E+00
RMM:  52     0.547508081566E+02   -0.47292E+01   -0.85471E+00  2795   0.752E+00    0.718E+00
RMM:  53     0.554898395190E+02    0.73903E+00    0.26711E+00  2749   0.417E+00    0.708E+00
RMM:  54     0.549606675111E+02   -0.52917E+00   -0.74670E-01  2829   0.320E+00    0.719E+00
RMM:  55     0.548694505302E+02   -0.91217E-01    0.38480E-02  2839   0.276E+00    0.726E+00
RMM:  56     0.548172875104E+02   -0.52163E-01   -0.11066E+00  2854   0.288E+00    0.745E+00
RMM:  57     0.539573009290E+02   -0.85999E+00   -0.23128E+01  2736   0.156E+01    0.110E+01
RMM:  58     0.536423703715E+02   -0.31493E+00    0.33676E+00  2765   0.666E+00    0.108E+01
RMM:  59     0.539877507508E+02    0.34538E+00    0.15973E+00  2793   0.433E+00    0.107E+01
RMM:  60     0.550332680223E+02    0.10455E+01   -0.26392E+00  2861   0.410E+00    0.105E+01
RMM:  61     0.541197681254E+02   -0.91350E+00   -0.35364E+00  2829   0.495E+00    0.104E+01
RMM:  62     0.511112429575E+02   -0.30085E+01   -0.20843E+01  2780   0.125E+01    0.943E+00
RMM:  63     0.543433933611E+02    0.32322E+01   -0.13889E+00  2743   0.615E+00    0.912E+00
RMM:  64     0.544568086452E+02    0.11342E+00    0.54568E+00  2738   0.405E+00    0.906E+00
RMM:  65     0.546471378119E+02    0.19033E+00    0.35921E-02  2833   0.294E+00    0.915E+00
RMM:  66     0.498182716393E+02   -0.48289E+01   -0.67686E+00  2855   0.551E+00    0.106E+01
RMM:  67     0.578209754263E+02    0.80027E+01   -0.11445E+01  2754   0.896E+00    0.765E+00
RMM:  68     0.585343664767E+02    0.71339E+00   -0.51682E+00  2874   0.606E+00    0.719E+00
RMM:  69     0.587064319109E+02    0.17207E+00   -0.57418E+00  2877   0.576E+00    0.727E+00
RMM:  70     0.589751349079E+02    0.26870E+00    0.23713E+00  2797   0.483E+00    0.734E+00
RMM:  71     0.587143692300E+02   -0.26077E+00   -0.11274E-01  2824   0.373E+00    0.726E+00
RMM:  72     0.533454396849E+02   -0.53689E+01   -0.26098E+01  2747   0.133E+01    0.659E+00
RMM:  73     0.551175211550E+02    0.17721E+01   -0.11778E+00  2766   0.694E+00    0.636E+00
RMM:  74     0.576113927529E+02    0.24939E+01   -0.52625E+00  2812   0.624E+00    0.550E+00
RMM:  75     0.577742810157E+02    0.16289E+00    0.48517E-01  2823   0.469E+00    0.540E+00
RMM:  76     0.582979912329E+02    0.52371E+00   -0.41897E+00  2863   0.418E+00    0.503E+00
RMM:  77     0.596374051501E+02    0.13394E+01   -0.62525E+00  2835   0.567E+00    0.412E+00
RMM:  78     0.600016689651E+02    0.36426E+00    0.10375E+00  2840   0.460E+00    0.403E+00
RMM:  79     0.599056511691E+02   -0.96018E-01   -0.30372E-01  2769   0.360E+00    0.403E+00
RMM:  80     0.599472223902E+02    0.41571E-01   -0.43349E-01  2860   0.316E+00    0.400E+00
RMM:  81     0.600311357405E+02    0.83913E-01   -0.16494E+00  2890   0.308E+00    0.383E+00
RMM:  82     0.554041997728E+02   -0.46269E+01   -0.72728E+00  2700   0.807E+00    0.550E+00
RMM:  83     0.565534148546E+02    0.11492E+01    0.19874E+00  2698   0.445E+00    0.523E+00
RMM:  84     0.570871627130E+02    0.53375E+00    0.48596E-01  2808   0.291E+00    0.505E+00
RMM:  85     0.592442397694E+02    0.21571E+01   -0.53337E+00  2757   0.533E+00    0.384E+00
RMM:  86     0.599045124223E+02    0.66027E+00   -0.21666E+00  2847   0.449E+00    0.335E+00
RMM:  87     0.601635394796E+02    0.25903E+00   -0.15153E+00  2858   0.406E+00    0.315E+00
RMM:  88     0.602189044499E+02    0.55365E-01    0.27738E-01  2820   0.343E+00    0.319E+00
RMM:  89     0.601985545233E+02   -0.20350E-01    0.45214E-01  2766   0.280E+00    0.326E+00
RMM:  90     0.602118158399E+02    0.13261E-01    0.14165E-01  2806   0.239E+00    0.327E+00
RMM:  91     0.602630375238E+02    0.51222E-01   -0.71734E-02  2841   0.221E+00    0.327E+00
RMM:  92     0.608807370041E+02    0.61770E+00   -0.51981E+00  2744   0.530E+00    0.291E+00
RMM:  93     0.610349987068E+02    0.15426E+00    0.10365E+00  2825   0.361E+00    0.293E+00
RMM:  94     0.610135494988E+02   -0.21449E-01    0.19130E-01  2747   0.263E+00    0.298E+00
RMM:  95     0.607040212153E+02   -0.30953E+00   -0.25906E-01  2717   0.261E+00    0.306E+00
RMM:  96     0.603900359552E+02   -0.31399E+00   -0.81993E-01  2806   0.255E+00    0.315E+00
RMM:  97     0.607137500564E+02    0.32371E+00   -0.79833E+00  2702   0.804E+00    0.335E+00
RMM:  98     0.609794619808E+02    0.26571E+00    0.12016E+00  2664   0.449E+00    0.318E+00
RMM:  99     0.609005178278E+02   -0.78944E-01   -0.71818E-01  2768   0.320E+00    0.302E+00
RMM: 100     0.607162554328E+02   -0.18426E+00   -0.70760E-01  2812   0.283E+00
   7 F= 0.57807174E+02 E0= 0.57810483E+02  d E =0.872002E+03
 curvature:  -0.00 expect dE=-0.111E-01 dE for cont linesearch -0.171E-02
 ZBRENT: bisectioning
 opt :   0.5449  next Energy=     1.560358 (dE= 0.816E+03)
 bond charge predicted
       N       E                     dE             d eps       ncg     rms          rms(c)
DAV:   1    -0.379110887307E+02   -0.98812E+02   -0.12222E+03  3432   0.829E+01    0.793E+00
RMM:   2    -0.974525827041E+02   -0.59541E+02   -0.61258E+02  2462   0.793E+01    0.127E+01
RMM:   3    -0.584867429231E+02    0.38966E+02   -0.66618E+01  1854   0.261E+01    0.107E+01
RMM:   4    -0.401535682363E+02    0.18333E+02   -0.35751E+01  1756   0.165E+01    0.537E+00
RMM:   5    -0.450612298654E+02   -0.49077E+01   -0.97067E+01  1771   0.250E+01    0.667E+00
RMM:   6    -0.382843283735E+02    0.67769E+01   -0.64198E+00  1730   0.920E+00    0.312E+00
RMM:   7    -0.372023917683E+02    0.10819E+01   -0.35991E+00  1738   0.504E+00    0.998E-01
RMM:   8    -0.373646481785E+02   -0.16226E+00   -0.19167E+00  1743   0.346E+00    0.108E+00
RMM:   9    -0.372694023416E+02    0.95246E-01   -0.11453E+00  1734   0.311E+00    0.735E-01
RMM:  10    -0.372316616523E+02    0.37741E-01   -0.17023E-02  1737   0.522E-01    0.566E-01
RMM:  11    -0.371962208682E+02    0.35441E-01   -0.65831E-02  1733   0.709E-01    0.148E-01
RMM:  12    -0.371950633804E+02    0.11575E-02   -0.98788E-03  1742   0.253E-01    0.601E-02
RMM:  13    -0.371950996988E+02   -0.36318E-04   -0.73875E-04  1500   0.916E-02
   8 F= -.40527998E+02 E0= -.40524258E+02  d E =0.773667E+03
 curvature: -27.11 expect dE=-0.402E+01 dE for cont linesearch -0.244E-02
 ZBRENT: interpolating
 opt :   0.5460  next Energy=   -40.528164 (dE= 0.774E+03)
 bond charge predicted
       N       E                     dE             d eps       ncg     rms          rms(c)
DAV:   1    -0.371921680550E+02    0.28953E-02   -0.14043E-02  2032   0.525E-01    0.405E-02
RMM:   2    -0.371932098731E+02   -0.10418E-02   -0.71952E-03  1728   0.271E-01    0.930E-02
RMM:   3    -0.371920352168E+02    0.11747E-02   -0.22108E-03  1710   0.148E-01    0.132E-02
RMM:   4    -0.371920328676E+02    0.23492E-05   -0.11025E-04  1006   0.326E-02
   9 F= -.40528163E+02 E0= -.40524596E+02  d E =0.773666E+03
 curvature:  -1.84 expect dE=-0.256E+00 dE for cont linesearch -0.677E-04
 ZBRENT: interpolating
 opt :   0.5481  next Energy=   -40.528350 (dE= 0.774E+03)
 bond charge predicted
       N       E                     dE             d eps       ncg     rms          rms(c)
DAV:   1    -0.371876820283E+02    0.43532E-02   -0.39085E-02  2136   0.881E-01    0.863E-02
RMM:   2    -0.371924639191E+02   -0.47819E-02   -0.32600E-02  1728   0.543E-01    0.201E-01
RMM:   3    -0.371868994050E+02    0.55645E-02   -0.10196E-02  1728   0.319E-01    0.221E-02
RMM:   4    -0.371869144782E+02   -0.15073E-04   -0.59440E-04  1422   0.680E-02
  10 F= -.40528435E+02 E0= -.40525011E+02  d E =0.773666E+03
 curvature:  -5.11 expect dE=-0.660E+00 dE for cont linesearch -0.199E-04
 ZBRENT: bisectioning
 opt :   0.6353  next Energy=   -40.304993 (dE= 0.774E+03)
 bond charge predicted
       N       E                     dE             d eps       ncg     rms          rms(c)
DAV:   1    -0.388340629256E+02   -0.16472E+01   -0.68045E+01  1792   0.370E+01    0.413E+00
RMM:   2    -0.680863520690E+02   -0.29252E+02   -0.16537E+02  1884   0.357E+01    0.119E+01
RMM:   3    -0.411090875616E+02    0.26977E+02   -0.19249E+01  1730   0.139E+01    0.594E+00
RMM:   4    -0.383797515408E+02    0.27293E+01   -0.39579E+01  1730   0.165E+01    0.265E+00
RMM:   5    -0.375896446534E+02    0.79011E+00   -0.12261E+00  1732   0.422E+00    0.196E+00
RMM:   6    -0.370705356033E+02    0.51911E+00   -0.12946E+00  1728   0.322E+00    0.500E-01
RMM:   7    -0.377478700852E+02   -0.67733E+00   -0.21267E+00  1728   0.363E+00    0.215E+00
RMM:   8    -0.383009179713E+02   -0.55305E+00   -0.59352E-01  1742   0.188E+00    0.298E+00
RMM:   9    -0.378663178389E+02    0.43460E+00   -0.71736E-02  1728   0.915E-01    0.241E+00
RMM:  10    -0.375003818903E+02    0.36594E+00   -0.16300E-01  1728   0.102E+00    0.179E+00
RMM:  11    -0.373228121548E+02    0.17757E+00   -0.10306E-01  1737   0.767E-01    0.137E+00
RMM:  12    -0.371962687839E+02    0.12654E+00   -0.89229E-02  1729   0.724E-01    0.985E-01
RMM:  13    -0.370908065864E+02    0.10546E+00   -0.14762E-01  1732   0.943E-01    0.468E-01
RMM:  14    -0.370757576129E+02    0.15049E-01   -0.32729E-02  1753   0.440E-01    0.292E-01
RMM:  15    -0.370665190156E+02    0.92386E-02   -0.21032E-02  1728   0.361E-01    0.110E-01
RMM:  16    -0.370654824587E+02    0.10366E-02   -0.58538E-03  1715   0.187E-01    0.338E-02
RMM:  17    -0.370654441257E+02    0.38333E-04   -0.76604E-04  1413   0.759E-02
  11 F= -.40252312E+02 E0= -.40249213E+02  d E =0.773942E+03
 curvature: ****** expect dE= 0.175E+05 dE for cont linesearch  0.248E+04
 ZBRENT: interpolating
 opt :   0.5489  next Energy=   -40.528460 (dE= 0.774E+03)
 bond charge predicted
       N       E                     dE             d eps       ncg     rms          rms(c)
DAV:   1    -0.571000873212E+02   -0.20035E+02   -0.12523E+02  2120   0.533E+01    0.113E+01
RMM:   2    -0.165730360779E+03   -0.10863E+03   -0.10344E+03  2544   0.116E+02    0.153E+01
RMM:   3    -0.895586102751E+02    0.76172E+02   -0.11944E+02  1880   0.369E+01    0.140E+01
RMM:   4    -0.726048565440E+02    0.16954E+02   -0.20058E+01  1794   0.133E+01    0.134E+01
RMM:   5    -0.614272355676E+02    0.11178E+02   -0.77851E+00  1763   0.724E+00    0.118E+01
RMM:   6    -0.445315206666E+02    0.16896E+02   -0.23213E+02  1973   0.402E+01    0.562E+00
RMM:   7    -0.428608884001E+02    0.16706E+01   -0.10964E+01  1743   0.105E+01    0.630E+00
RMM:   8    -0.411340950679E+02    0.17268E+01   -0.55026E-01  1737   0.288E+00    0.549E+00
RMM:   9    -0.373332667630E+02    0.38008E+01   -0.84194E+00  1729   0.789E+00    0.168E+00
RMM:  10    -0.371988530955E+02    0.13441E+00   -0.17972E+00  1733   0.353E+00    0.777E-01
RMM:  11    -0.372997067495E+02   -0.10085E+00   -0.48555E-01  1738   0.188E+00    0.987E-01
RMM:  12    -0.372226263706E+02    0.77080E-01   -0.61906E-01  1728   0.229E+00    0.660E-01
RMM:  13    -0.372502794035E+02   -0.27653E-01   -0.43975E-01  1728   0.192E+00    0.628E-01
RMM:  14    -0.371884506789E+02    0.61829E-01   -0.17672E-01  1728   0.130E+00    0.241E-01
RMM:  15    -0.372055169213E+02   -0.17066E-01   -0.55825E-02  1728   0.680E-01    0.399E-01
RMM:  16    -0.372070146210E+02   -0.14977E-02   -0.36040E-03  1692   0.166E-01    0.415E-01
RMM:  17    -0.371881901096E+02    0.18825E-01   -0.22190E-02  1728   0.418E-01    0.172E-01
RMM:  18    -0.371860619296E+02    0.21282E-02   -0.42071E-03  1720   0.174E-01    0.104E-01
RMM:  19    -0.371852788068E+02    0.78312E-03   -0.15172E-03  1627   0.103E-01    0.595E-02
RMM:  20    -0.371849387821E+02    0.34002E-03   -0.29625E-03  1710   0.146E-01    0.262E-02
RMM:  21    -0.371849331979E+02    0.55842E-05   -0.12375E-04  1161   0.406E-02
  12 F= -.40528507E+02 E0= -.40525013E+02  d E =0.773666E+03
 curvature:  -0.00 expect dE=-0.734E-04 dE for cont linesearch -0.826E-11
 trial: gam= 0.00014 g(F)=  0.130E+00 g(S)=  0.000E+00 ort = 0.364E-02 (trialstep = 0.910E+00)
 search vector abs. value=  0.130E+00
 bond charge predicted
       N       E                     dE             d eps       ncg     rms          rms(c)
DAV:   1    -0.377123800239E+02   -0.52744E+00   -0.27304E+00  2232   0.788E+00    0.191E+00
RMM:   2    -0.627704587366E+02   -0.25058E+02   -0.13468E+02  1791   0.331E+01    0.111E+01
RMM:   3    -0.461525638548E+02    0.16618E+02   -0.67253E+00  1729   0.976E+00    0.811E+00
