 running on    8 total cores
 distrk:  each k-point on    8 cores,    1 groups
 distr:  one band on    2 cores,    4 groups
 using from now: INCAR     
 vasp.5.4.4.18Apr17-6-g9f103f2a35 (build Feb 26 2018 15:04:24) complex          
  
 POSCAR found type information on POSCAR  Mo S 
 POSCAR found :  2 types and       3 ions
 scaLAPACK will be used

 ----------------------------------------------------------------------------- 
|                                                                             |
|  ADVICE TO THIS USER RUNNING 'VASP/VAMP'   (HEAR YOUR MASTER'S VOICE ...):  |
|                                                                             |
|      You have a (more or less) 'small supercell' and for smaller cells      |
|      it is recommended  to use the reciprocal-space projection scheme!      |
|      The real space optimization is not  efficient for small cells and it   |
|      is also less accurate ...                                              |
|      Therefore set LREAL=.FALSE. in the  INCAR file                         |
|                                                                             |
 ----------------------------------------------------------------------------- 

 LDA part: xc-table for Pade appr. of Perdew
 WARNING: stress and forces are not correct
 POSCAR, INCAR and KPOINTS ok, starting setup
 FFT: planning ...
 WAVECAR not read
 charge-density read from file: unknown                                 
 entering main loop
       N       E                     dE             d eps       ncg     rms          rms(c)
DAV:   1     0.151218548822E+03    0.15122E+03   -0.11034E+04  6560   0.115E+03
DAV:   2    -0.687099540644E+01   -0.15809E+03   -0.15545E+03  7184   0.242E+02
DAV:   3    -0.214654258620E+02   -0.14594E+02   -0.14470E+02  7472   0.754E+01
DAV:   4    -0.216984261775E+02   -0.23300E+00   -0.23254E+00  6672   0.115E+01
DAV:   5    -0.217043333895E+02   -0.59072E-02   -0.59067E-02  7232   0.173E+00
DAV:   6    -0.217045880712E+02   -0.25468E-03   -0.25468E-03  6928   0.342E-01
DAV:   7    -0.217045999190E+02   -0.11848E-04   -0.11848E-04  6536   0.726E-02
   1 F= -.22644461E+02 E0= -.22644461E+02  d E =-.481194E-18
