 running on    8 total cores
 distrk:  each k-point on    8 cores,    1 groups
 distr:  one band on    2 cores,    4 groups
 using from now: INCAR     
 vasp.5.4.4.18Apr17-6-g9f103f2a35 (build Feb 26 2018 15:04:24) complex          
  
 POSCAR found type information on POSCAR  B  N 
 POSCAR found :  2 types and       2 ions
 scaLAPACK will be used
 LDA part: xc-table for Pade appr. of Perdew
 WARNING: stress and forces are not correct
 POSCAR, INCAR and KPOINTS ok, starting setup
 FFT: planning ...
 WAVECAR not read
 charge-density read from file: unknown                                 
 entering main loop
       N       E                     dE             d eps       ncg     rms          rms(c)
DAV:   1     0.524135004097E+02    0.52414E+02   -0.30361E+03  2512   0.713E+02
DAV:   2    -0.123028361001E+02   -0.64716E+02   -0.51187E+02  3888   0.109E+02
DAV:   3    -0.175027203174E+02   -0.51999E+01   -0.47683E+01  3056   0.532E+01
DAV:   4    -0.175737043597E+02   -0.70984E-01   -0.70984E-01  4136   0.642E+00
DAV:   5    -0.175741175924E+02   -0.41323E-03   -0.41323E-03  3312   0.237E-01
DAV:   6    -0.175741270839E+02   -0.94914E-05   -0.94914E-05  3880   0.200E-02
   1 F= -.17727876E+02 E0= -.17727876E+02  d E =-.293512E-15
