 running on   16 total cores
 distrk:  each k-point on   16 cores,    1 groups
 distr:  one band on    4 cores,    4 groups
 using from now: INCAR     
 vasp.5.4.4.18Apr17-6-g9f103f2a35 (build Feb 26 2018 15:04:24) complex          
  
 POSCAR found type information on POSCAR  W  Se
 POSCAR found :  2 types and      36 ions
 scaLAPACK will be used
 LDA part: xc-table for Pade appr. of Perdew
 POSCAR, INCAR and KPOINTS ok, starting setup
 FFT: planning ...
 WAVECAR not read
 charge-density read from file: unknown                                 
 WARNING: random wavefunctions but no delay for mixing, default for NELMDL
 entering main loop
       N       E                     dE             d eps       ncg     rms          rms(c)
DAV:   1     0.224171619961E+04    0.22417E+04   -0.12073E+05  1696   0.125E+03
DAV:   2     0.102519072659E+03   -0.21392E+04   -0.20713E+04  1956   0.244E+02
DAV:   3    -0.243303278487E+03   -0.34582E+03   -0.34369E+03  1672   0.946E+01
DAV:   4    -0.258706087657E+03   -0.15403E+02   -0.15225E+02  1712   0.227E+01
DAV:   5    -0.259313077304E+03   -0.60699E+00   -0.60283E+00  1928   0.387E+00    0.114E-01
DAV:   6    -0.892344611936E+05   -0.88975E+05   -0.88076E+05  1988   0.266E+03    0.176E+02
DAV:   7     0.616962129601E+03    0.89851E+05   -0.75238E+04  2472   0.267E+02    0.402E+01
DAV:   8    -0.192124561830E+03   -0.80909E+03   -0.78085E+03  1904   0.186E+02    0.747E+00
DAV:   9    -0.256501057711E+03   -0.64376E+02   -0.63834E+02  1664   0.457E+01    0.724E-01
DAV:  10    -0.259234920477E+03   -0.27339E+01   -0.27243E+01  1904   0.950E+00    0.577E-01
DAV:  11    -0.259331880921E+03   -0.96960E-01   -0.98477E-01  1832   0.180E+00    0.602E-01
DAV:  12    -0.259335240133E+03   -0.33592E-02   -0.45640E-02  1936   0.362E-01    0.573E-01
DAV:  13    -0.259333189424E+03    0.20507E-02   -0.27751E-03  1824   0.113E-01    0.515E-01
DAV:  14    -0.259330952111E+03    0.22373E-02   -0.78797E-04  1792   0.737E-02    0.453E-01
DAV:  15    -0.259330259418E+03    0.69269E-03   -0.18609E-04  1696   0.318E-02    0.430E-01
DAV:  16    -0.259329686803E+03    0.57261E-03   -0.67251E-05  1408   0.190E-02    0.412E-01
DAV:  17    -0.259329145782E+03    0.54102E-03   -0.70690E-05  1464   0.191E-02    0.394E-01
DAV:  18    -0.259328793512E+03    0.35227E-03   -0.36869E-05  1360   0.136E-02    0.381E-01
DAV:  19    -0.259326369686E+03    0.24238E-02   -0.19608E-03  1592   0.983E-02    0.287E-01
DAV:  20    -0.259325392707E+03    0.97698E-03   -0.11880E-03  1712   0.718E-02    0.231E-01
DAV:  21    -0.259325133700E+03    0.25901E-03   -0.19239E-04  1592   0.294E-02    0.211E-01
DAV:  22    -0.259324676353E+03    0.45735E-03   -0.32839E-04  1600   0.407E-02    0.187E-01
DAV:  23    -0.259324474336E+03    0.20202E-03   -0.21779E-04  1560   0.301E-02    0.174E-01
DAV:  24    -0.259324362313E+03    0.11202E-03   -0.33896E-05  1264   0.118E-02    0.168E-01
DAV:  25    -0.259324327730E+03    0.34583E-04   -0.35485E-06   928   0.450E-03    0.167E-01
DAV:  26    -0.259324290138E+03    0.37592E-04   -0.22635E-06   928   0.298E-03    0.165E-01
DAV:  27    -0.259324271761E+03    0.18377E-04   -0.18764E-06   928   0.304E-03    0.164E-01
DAV:  28    -0.259324249400E+03    0.22360E-04   -0.25409E-06   928   0.337E-03    0.162E-01
DAV:  29    -0.259324212806E+03    0.36594E-04   -0.77269E-06   928   0.652E-03    0.159E-01
DAV:  30    -0.259324189296E+03    0.23511E-04   -0.66323E-06   928   0.546E-03    0.156E-01
DAV:  31    -0.259324165897E+03    0.23398E-04   -0.48325E-06   920   0.525E-03    0.153E-01
DAV:  32    -0.259324082970E+03    0.82927E-04   -0.31566E-05  1216   0.106E-02    0.143E-01
DAV:  33    -0.259324061716E+03    0.21254E-04   -0.55617E-06   848   0.624E-03    0.140E-01
DAV:  34    -0.259323897653E+03    0.16406E-03   -0.89507E-05  1640   0.171E-02    0.119E-01
DAV:  35    -0.259323814887E+03    0.82766E-04   -0.47372E-05  1376   0.141E-02    0.104E-01
DAV:  36    -0.259323693891E+03    0.12100E-03   -0.15534E-04  1680   0.251E-02    0.761E-02
DAV:  37    -0.259323646232E+03    0.47660E-04   -0.11445E-04  1640   0.212E-02    0.525E-02
DAV:  38    -0.259323647460E+03   -0.12287E-05   -0.62711E-05  1544   0.165E-02
   1 F= -.27122276E+03 E0= -.27122276E+03  d E =-.271223E+03
 curvature:   0.00 expect dE= 0.000E+00 dE for cont linesearch  0.000E+00
 trial: gam= 0.00000 g(F)=  0.146E-03 g(S)=  0.000E+00 ort = 0.000E+00 (trialstep = 0.100E+01)
 search vector abs. value=  0.146E-03
 reached required accuracy - stopping structural energy minimisation
