 running on    8 total cores
 distrk:  each k-point on    8 cores,    1 groups
 distr:  one band on    2 cores,    4 groups
 using from now: INCAR     
 vasp.5.4.4.18Apr17-6-g9f103f2a35 (build Feb 26 2018 15:04:24) complex          
  
 POSCAR found type information on POSCAR  Si
 POSCAR found :  1 types and       8 ions
 scaLAPACK will be used
 LDA part: xc-table for Pade appr. of Perdew

 ----------------------------------------------------------------------------- 
|                                                                             |
|           W    W    AA    RRRRR   N    N  II  N    N   GGGG   !!!           |
|           W    W   A  A   R    R  NN   N  II  NN   N  G    G  !!!           |
|           W    W  A    A  R    R  N N  N  II  N N  N  G       !!!           |
|           W WW W  AAAAAA  RRRRR   N  N N  II  N  N N  G  GGG   !            |
|           WW  WW  A    A  R   R   N   NN  II  N   NN  G    G                |
|           W    W  A    A  R    R  N    N  II  N    N   GGGG   !!!           |
|                                                                             |
|      The number of bands has been changed from the values supplied          |
|      in the INCAR file. This is a result of running the parallel version.   |
|      The orbitals not found in the WAVECAR file will be initialized with    |
|      random numbers, which is usually adequate. For correlated              |
|      calculations, however, you should redo the groundstate calculation.    |
|      I found NBANDS    =       26  now  NBANDS  =      28                   |
|                                                                             |
 ----------------------------------------------------------------------------- 

 WARNING: stress and forces are not correct
 POSCAR, INCAR and KPOINTS ok, starting setup
 FFT: planning ...
 WAVECAR not read
 charge-density read from file: unknown                                 
 entering main loop
       N       E                     dE             d eps       ncg     rms          rms(c)
DAV:   1     0.637418399347E+02    0.63742E+02   -0.11913E+04 12096   0.941E+02
DAV:   2    -0.380469891419E+02   -0.10179E+03   -0.93451E+02 15300   0.141E+02
DAV:   3    -0.431200804903E+02   -0.50731E+01   -0.49984E+01 15576   0.283E+01
DAV:   4    -0.431942973626E+02   -0.74217E-01   -0.74094E-01 15032   0.441E+00
DAV:   5    -0.431956989270E+02   -0.14016E-02   -0.14012E-02 15092   0.579E-01
DAV:   6    -0.431957349222E+02   -0.35995E-04   -0.35991E-04 14932   0.977E-02
   1 F= -.45660617E+02 E0= -.45660617E+02  d E =-.850387E-11
