       N       E                     dE             d eps       ncg     rms          rms(c)
DAV:   1     0.232776351075E+04    0.23278E+04   -0.11942E+05  8136   0.113E+03
DAV:   2     0.869329561667E+02   -0.22408E+04   -0.21558E+04 10024   0.236E+02
DAV:   3    -0.247538705792E+03   -0.33447E+03   -0.33170E+03  8520   0.886E+01
DAV:   4    -0.260586682383E+03   -0.13048E+02   -0.12889E+02  8360   0.200E+01
DAV:   5    -0.260980922479E+03   -0.39424E+00   -0.39098E+00  9288   0.319E+00    0.381E+01
DAV:   6    -0.267453823058E+03   -0.64729E+01   -0.46257E+00  9400   0.632E+00    0.243E+01
DAV:   7    -0.269887744580E+03   -0.24339E+01   -0.12274E+01  9152   0.972E+00    0.681E+00
DAV:   8    -0.268834764250E+03    0.10530E+01   -0.77685E+00  8040   0.543E+00    0.455E+00
DAV:   9    -0.268831179746E+03    0.35845E-02   -0.89515E-01  8488   0.186E+00    0.435E+00
DAV:  10    -0.268612875759E+03    0.21830E+00   -0.10718E-01  9072   0.955E-01    0.346E+00
DAV:  11    -0.268553876053E+03    0.59000E-01   -0.13990E+00  9192   0.314E+00    0.194E+00
DAV:  12    -0.268417753650E+03    0.13612E+00   -0.36409E-01  8696   0.163E+00    0.607E-01
DAV:  13    -0.268412255362E+03    0.54983E-02   -0.49109E-02  8008   0.410E-01    0.428E-01
DAV:  14    -0.268412289640E+03   -0.34278E-04   -0.13771E-02  9088   0.331E-01    0.279E-01
DAV:  15    -0.268410627893E+03    0.16617E-02   -0.15865E-02  7952   0.251E-01    0.201E-01
DAV:  16    -0.268410619411E+03    0.84815E-05   -0.34896E-03  7848   0.121E-01    0.144E-01
DAV:  17    -0.268409844192E+03    0.77522E-03   -0.15735E-03  8592   0.105E-01    0.492E-02
DAV:  18    -0.268409843135E+03    0.10569E-05   -0.83137E-04  7640   0.542E-02    0.212E-02
DAV:  19    -0.268409844883E+03   -0.17477E-05   -0.89363E-05  6704   0.207E-02
   1 F= -.28030896E+03 E0= -.28030896E+03  d E =0.000000E+00  mag=     0.0007     0.0007     0.0008
