 running on    8 total cores
 distrk:  each k-point on    8 cores,    1 groups
 distr:  one band on    2 cores,    4 groups
 using from now: INCAR     
 vasp.5.4.4.18Apr17-6-g9f103f2a35 (build Feb 26 2018 15:04:24) complex          
  
 POSCAR found type information on POSCAR  B  N 
 POSCAR found :  2 types and       2 ions
 scaLAPACK will be used
 LDA part: xc-table for Pade appr. of Perdew
 POSCAR, INCAR and KPOINTS ok, starting setup
 FFT: planning ...
 WAVECAR not read
 entering main loop
       N       E                     dE             d eps       ncg     rms          rms(c)
DAV:   1     0.634876735983E+02    0.63488E+02   -0.33469E+03  1520   0.717E+02
DAV:   2    -0.137796390841E+02   -0.77267E+02   -0.64932E+02  2136   0.138E+02
DAV:   3    -0.194298742902E+02   -0.56502E+01   -0.56502E+01  2024   0.610E+01
DAV:   4    -0.194835648295E+02   -0.53691E-01   -0.53691E-01  2528   0.597E+00
DAV:   5    -0.194836211121E+02   -0.56283E-04   -0.56283E-04  2120   0.133E-01    0.721E+00
DAV:   6    -0.178687209492E+02    0.16149E+01   -0.62544E+00  2376   0.173E+01    0.267E+00
DAV:   7    -0.176745077768E+02    0.19421E+00   -0.19911E-01  2672   0.380E+00    0.149E+00
DAV:   8    -0.175818412569E+02    0.92667E-01   -0.19839E-01  2568   0.325E+00    0.257E-01
DAV:   9    -0.175746503321E+02    0.71909E-02   -0.36319E-03  2632   0.484E-01    0.843E-02
DAV:  10    -0.175723925273E+02    0.22578E-02   -0.12143E-03  2576   0.226E-01    0.570E-02
DAV:  11    -0.175714892106E+02    0.90332E-03   -0.18901E-03  2040   0.229E-01    0.239E-02
DAV:  12    -0.175727895961E+02   -0.13004E-02   -0.21873E-04  1944   0.825E-02    0.167E-02
DAV:  13    -0.175736311492E+02   -0.84155E-03   -0.13994E-04  1912   0.646E-02    0.651E-03
DAV:  14    -0.175740729782E+02   -0.44183E-03   -0.82575E-05  2080   0.403E-02    0.489E-03
DAV:  15    -0.175740972150E+02   -0.24237E-04   -0.54414E-06  1920   0.169E-02
   1 F= -.17727846E+02 E0= -.17727846E+02  d E =0.000000E+00
